REMARK  Name = 
REMARK  2 active torsions:
REMARK  status: ('A' for Active; 'I' for Inactive)
REMARK    1  A    between atoms: C_1  and  C_2
REMARK    2  A    between atoms: C_2  and  O_3
REMARK                            x       y       z     vdW  Elec       q    Type
REMARK                         _______ _______ _______ _____ _____    ______ ____
ROOT
ATOM      1  C   UNL     1       0.975   0.008  -0.095  0.00  0.00    +0.000 C 
ATOM      2  C   UNL     1       2.490   0.015  -0.099  0.00  0.00    +0.000 C 
ENDROOT
BRANCH   2   3
ATOM      3  O   UNL     1       2.971   1.344   0.029  0.00  0.00    +0.000 OA
ATOM      4  H   UNL     1       2.632   1.853  -0.727  0.00  0.00    +0.000 HD
ENDBRANCH   2   3
TORSDOF 1
