MODEL 1
REMARK VINA RESULT:    -1.800      0.000      0.000
REMARK INTER + INTRA:          -1.853
REMARK INTER:                  -1.853
REMARK INTRA:                   0.000
REMARK UNBOUND:                 0.000
REMARK  Name = 
REMARK  2 active torsions:
REMARK  status: ('A' for Active; 'I' for Inactive)
REMARK    1  A    between atoms: C_1  and  C_2
REMARK    2  A    between atoms: C_2  and  O_3
REMARK                            x       y       z     vdW  Elec       q    Type
REMARK                         _______ _______ _______ _____ _____    ______ ____
ROOT
ATOM      1  C   UNL     1       7.213   6.363  -3.442  0.00  0.00    +0.000 C 
ATOM      2  C   UNL     1       7.739   6.572  -4.847  0.00  0.00    +0.000 C 
ENDROOT
BRANCH   2   3
ATOM      3  O   UNL     1       8.620   7.684  -4.877  0.00  0.00    +0.000 OA
ATOM      4  H   UNL     1       8.079   8.485  -4.981  0.00  0.00    +0.000 HD
ENDBRANCH   2   3
TORSDOF 1
ENDMDL
MODEL 2
REMARK VINA RESULT:    -1.753      1.285      1.948
REMARK INTER + INTRA:          -1.804
REMARK INTER:                  -1.804
REMARK INTRA:                   0.000
REMARK UNBOUND:                 0.000
REMARK  Name = 
REMARK  2 active torsions:
REMARK  status: ('A' for Active; 'I' for Inactive)
REMARK    1  A    between atoms: C_1  and  C_2
REMARK    2  A    between atoms: C_2  and  O_3
REMARK                            x       y       z     vdW  Elec       q    Type
REMARK                         _______ _______ _______ _____ _____    ______ ____
ROOT
ATOM      1  C   UNL     1       6.781   6.428  -6.696  0.00  0.00    +0.000 C 
ATOM      2  C   UNL     1       7.358   6.411  -5.296  0.00  0.00    +0.000 C 
ENDROOT
BRANCH   2   3
ATOM      3  O   UNL     1       8.308   7.455  -5.148  0.00  0.00    +0.000 OA
ATOM      4  H   UNL     1       8.091   8.144  -5.798  0.00  0.00    +0.000 HD
ENDBRANCH   2   3
TORSDOF 1
ENDMDL
MODEL 3
REMARK VINA RESULT:    -1.558      5.914      6.356
REMARK INTER + INTRA:          -1.604
REMARK INTER:                  -1.604
REMARK INTRA:                   0.000
REMARK UNBOUND:                 0.000
REMARK  Name = 
REMARK  2 active torsions:
REMARK  status: ('A' for Active; 'I' for Inactive)
REMARK    1  A    between atoms: C_1  and  C_2
REMARK    2  A    between atoms: C_2  and  O_3
REMARK                            x       y       z     vdW  Elec       q    Type
REMARK                         _______ _______ _______ _____ _____    ______ ____
ROOT
ATOM      1  C   UNL     1       7.470   8.091   0.458  0.00  0.00    +0.000 C 
ATOM      2  C   UNL     1       7.514   8.378   1.944  0.00  0.00    +0.000 C 
ENDROOT
BRANCH   2   3
ATOM      3  O   UNL     1       8.313   9.523   2.196  0.00  0.00    +0.000 OA
ATOM      4  H   UNL     1       7.778  10.307   1.983  0.00  0.00    +0.000 HD
ENDBRANCH   2   3
TORSDOF 1
ENDMDL
MODEL 4
REMARK VINA RESULT:    -1.555      7.878      8.198
REMARK INTER + INTRA:          -1.601
REMARK INTER:                  -1.601
REMARK INTRA:                   0.000
REMARK UNBOUND:                 0.000
REMARK  Name = 
REMARK  2 active torsions:
REMARK  status: ('A' for Active; 'I' for Inactive)
REMARK    1  A    between atoms: C_1  and  C_2
REMARK    2  A    between atoms: C_2  and  O_3
REMARK                            x       y       z     vdW  Elec       q    Type
REMARK                         _______ _______ _______ _____ _____    ______ ____
ROOT
ATOM      1  C   UNL     1       7.542   9.141   4.546  0.00  0.00    +0.000 C 
ATOM      2  C   UNL     1       7.312   9.819   3.211  0.00  0.00    +0.000 C 
ENDROOT
BRANCH   2   3
ATOM      3  O   UNL     1       8.304   9.412   2.281  0.00  0.00    +0.000 OA
ATOM      4  H   UNL     1       9.066   9.085   2.789  0.00  0.00    +0.000 HD
ENDBRANCH   2   3
TORSDOF 1
ENDMDL
MODEL 5
REMARK VINA RESULT:    -1.540      3.610      3.967
REMARK INTER + INTRA:          -1.585
REMARK INTER:                  -1.585
REMARK INTRA:                   0.000
REMARK UNBOUND:                 0.000
REMARK  Name = 
REMARK  2 active torsions:
REMARK  status: ('A' for Active; 'I' for Inactive)
REMARK    1  A    between atoms: C_1  and  C_2
REMARK    2  A    between atoms: C_2  and  O_3
REMARK                            x       y       z     vdW  Elec       q    Type
REMARK                         _______ _______ _______ _____ _____    ______ ____
ROOT
ATOM      1  C   UNL     1       7.463   8.014   0.500  0.00  0.00    +0.000 C 
ATOM      2  C   UNL     1       7.499   8.030  -1.015  0.00  0.00    +0.000 C 
ENDROOT
BRANCH   2   3
ATOM      3  O   UNL     1       8.818   8.290  -1.468  0.00  0.00    +0.000 OA
ATOM      4  H   UNL     1       9.233   8.897  -0.831  0.00  0.00    +0.000 HD
ENDBRANCH   2   3
TORSDOF 1
ENDMDL
MODEL 6
REMARK VINA RESULT:    -1.232      9.304      9.732
REMARK INTER + INTRA:          -1.268
REMARK INTER:                  -1.268
REMARK INTRA:                   0.000
REMARK UNBOUND:                 0.000
REMARK  Name = 
REMARK  2 active torsions:
REMARK  status: ('A' for Active; 'I' for Inactive)
REMARK    1  A    between atoms: C_1  and  C_2
REMARK    2  A    between atoms: C_2  and  O_3
REMARK                            x       y       z     vdW  Elec       q    Type
REMARK                         _______ _______ _______ _____ _____    ______ ____
ROOT
ATOM      1  C   UNL     1       7.407   9.635   3.493  0.00  0.00    +0.000 C 
ATOM      2  C   UNL     1       7.042   9.983   4.921  0.00  0.00    +0.000 C 
ENDROOT
BRANCH   2   3
ATOM      3  O   UNL     1       7.993   9.428   5.816  0.00  0.00    +0.000 OA
ATOM      4  H   UNL     1       7.741   8.502   5.974  0.00  0.00    +0.000 HD
ENDBRANCH   2   3
TORSDOF 1
ENDMDL
MODEL 7
REMARK VINA RESULT:    -1.095      5.068      5.382
REMARK INTER + INTRA:          -1.127
REMARK INTER:                  -1.127
REMARK INTRA:                   0.000
REMARK UNBOUND:                 0.000
REMARK  Name = 
REMARK  2 active torsions:
REMARK  status: ('A' for Active; 'I' for Inactive)
REMARK    1  A    between atoms: C_1  and  C_2
REMARK    2  A    between atoms: C_2  and  O_3
REMARK                            x       y       z     vdW  Elec       q    Type
REMARK                         _______ _______ _______ _____ _____    ______ ____
ROOT
ATOM      1  C   UNL     1       9.374   3.997  -9.481  0.00  0.00    +0.000 C 
ATOM      2  C   UNL     1      10.058   3.780  -8.147  0.00  0.00    +0.000 C 
ENDROOT
BRANCH   2   3
ATOM      3  O   UNL     1       9.333   4.433  -7.116  0.00  0.00    +0.000 OA
ATOM      4  H   UNL     1       9.898   5.141  -6.763  0.00  0.00    +0.000 HD
ENDBRANCH   2   3
TORSDOF 1
ENDMDL
MODEL 8
REMARK VINA RESULT:    -1.048      7.801      8.045
REMARK INTER + INTRA:          -1.079
REMARK INTER:                  -1.079
REMARK INTRA:                   0.000
REMARK UNBOUND:                 0.000
REMARK  Name = 
REMARK  2 active torsions:
REMARK  status: ('A' for Active; 'I' for Inactive)
REMARK    1  A    between atoms: C_1  and  C_2
REMARK    2  A    between atoms: C_2  and  O_3
REMARK                            x       y       z     vdW  Elec       q    Type
REMARK                         _______ _______ _______ _____ _____    ______ ____
ROOT
ATOM      1  C   UNL     1       7.370   9.727   3.288  0.00  0.00    +0.000 C 
ATOM      2  C   UNL     1       6.210   8.990   2.651  0.00  0.00    +0.000 C 
ENDROOT
BRANCH   2   3
ATOM      3  O   UNL     1       5.068   9.832   2.600  0.00  0.00    +0.000 OA
ATOM      4  H   UNL     1       4.448   9.527   3.283  0.00  0.00    +0.000 HD
ENDBRANCH   2   3
TORSDOF 1
ENDMDL
MODEL 9
REMARK VINA RESULT:    -0.796      5.246      5.326
REMARK INTER + INTRA:          -0.819
REMARK INTER:                  -0.819
REMARK INTRA:                   0.000
REMARK UNBOUND:                 0.000
REMARK  Name = 
REMARK  2 active torsions:
REMARK  status: ('A' for Active; 'I' for Inactive)
REMARK    1  A    between atoms: C_1  and  C_2
REMARK    2  A    between atoms: C_2  and  O_3
REMARK                            x       y       z     vdW  Elec       q    Type
REMARK                         _______ _______ _______ _____ _____    ______ ____
ROOT
ATOM      1  C   UNL     1       2.434   8.965  -3.903  0.00  0.00    +0.000 C 
ATOM      2  C   UNL     1       3.636   9.847  -4.174  0.00  0.00    +0.000 C 
ENDROOT
BRANCH   2   3
ATOM      3  O   UNL     1       4.370  10.050  -2.977  0.00  0.00    +0.000 OA
ATOM      4  H   UNL     1       3.743   9.998  -2.236  0.00  0.00    +0.000 HD
ENDBRANCH   2   3
TORSDOF 1
ENDMDL
