REMARK  Name = 
REMARK  2 active torsions:
REMARK  status: ('A' for Active; 'I' for Inactive)
REMARK    1  A    between atoms: C_1  and  O_2
REMARK    2  A    between atoms: O_2  and  C_3
REMARK                            x       y       z     vdW  Elec       q    Type
REMARK                         _______ _______ _______ _____ _____    ______ ____
ROOT
ATOM      1  C   UNL     1       3.247  -0.974  -0.767  0.00  0.00    +0.000 A 
ATOM      2  C   UNL     1       2.922  -1.244  -2.108  0.00  0.00    +0.000 A 
ATOM      3  C   UNL     1       3.539  -2.256  -2.848  0.00  0.00    +0.000 A 
ATOM      4  C   UNL     1       4.515  -3.066  -2.251  0.00  0.00    +0.000 A 
ATOM      5  C   UNL     1       4.849  -2.847  -0.902  0.00  0.00    +0.000 A 
ATOM      6  C   UNL     1       4.208  -1.824  -0.203  0.00  0.00    +0.000 A 
ATOM      7  O   UNL     1       4.671  -1.798   1.084  0.00  0.00    +0.000 OA
ATOM      8  C   UNL     1       5.605  -2.771   1.206  0.00  0.00    +0.000 A 
ATOM      9  C   UNL     1       5.757  -3.442   0.017  0.00  0.00    +0.000 A 
ATOM     10  C   UNL     1       3.170  -2.442  -4.245  0.00  0.00    +0.000 A 
ATOM     11  C   UNL     1       2.250  -1.650  -4.799  0.00  0.00    +0.000 A 
ATOM     12  C   UNL     1       1.571  -0.580  -4.049  0.00  0.00    +0.000 A 
ATOM     13  O   UNL     1       0.729   0.123  -4.593  0.00  0.00    +0.000 OA
ATOM     14  O   UNL     1       1.939  -0.423  -2.721  0.00  0.00    +0.000 OA
ENDROOT
BRANCH   1  16
ATOM     15  C   UNL     1       3.273   0.621   0.976  0.00  0.00    +0.000 C 
ATOM     16  O   UNL     1       2.582   0.060  -0.136  0.00  0.00    +0.000 OA
ENDBRANCH   1  16
TORSDOF 1
