REMARK  Name = 
REMARK  4 active torsions:
REMARK  status: ('A' for Active; 'I' for Inactive)
REMARK    1  A    between atoms: C_4  and  C_7
REMARK    2  A    between atoms: C_15  and  O_20
REMARK    3  A    between atoms: C_16  and  O_19
REMARK    4  A    between atoms: C_17  and  O_18
REMARK                            x       y       z     vdW  Elec       q    Type
REMARK                         _______ _______ _______ _____ _____    ______ ____
ROOT
ATOM      1  C   UNL     1      -2.950   0.497  -0.709  0.00  0.00    +0.000 A 
ATOM      2  C   UNL     1      -3.291   1.381  -1.658  0.00  0.00    +0.000 A 
ATOM      3  C   UNL     1      -4.610   1.250  -2.288  0.00  0.00    +0.000 A 
ATOM      4  O   UNL     1      -4.784   1.686  -3.419  0.00  0.00    +0.000 OA
ATOM      5  C   UNL     1      -5.618   0.521  -1.503  0.00  0.00    +0.000 A 
ATOM      6  C   UNL     1      -5.160  -0.312  -0.475  0.00  0.00    +0.000 A 
ATOM      7  O   UNL     1      -3.823  -0.440  -0.174  0.00  0.00    +0.000 OA
ATOM      8  C   UNL     1      -6.058  -1.043   0.313  0.00  0.00    +0.000 A 
ATOM      9  C   UNL     1      -7.421  -0.893   0.087  0.00  0.00    +0.000 A 
ATOM     10  C   UNL     1      -7.873  -0.035  -0.910  0.00  0.00    +0.000 A 
ATOM     11  C   UNL     1      -6.986   0.660  -1.722  0.00  0.00    +0.000 A 
ENDROOT
BRANCH   1  15
ATOM     12  C   UNL     1       1.104  -0.069   0.547  0.00  0.00    +0.000 A 
ATOM     13  C   UNL     1       0.067  -0.202   1.471  0.00  0.00    +0.000 A 
ATOM     14  C   UNL     1      -1.257   0.021   1.078  0.00  0.00    +0.000 A 
ATOM     15  C   UNL     1      -1.553   0.375  -0.244  0.00  0.00    +0.000 A 
ATOM     16  C   UNL     1      -0.495   0.520  -1.156  0.00  0.00    +0.000 A 
ATOM     17  C   UNL     1       0.827   0.305  -0.765  0.00  0.00    +0.000 A 
ENDBRANCH   1  15
BRANCH  11  18
ATOM     18  O   UNL     1      -7.490   1.497  -2.671  0.00  0.00    +0.000 OA
ATOM     19  H   UNL     1      -8.459   1.401  -2.627  0.00  0.00    +0.000 HD
ENDBRANCH  11  18
BRANCH  10  20
ATOM     20  O   UNL     1      -9.221   0.158  -1.098  0.00  0.00    +0.000 OA
ATOM     21  H   UNL     1      -9.643  -0.359  -0.384  0.00  0.00    +0.000 HD
ENDBRANCH  10  20
BRANCH   9  22
ATOM     22  O   UNL     1      -8.360  -1.545   0.837  0.00  0.00    +0.000 OA
ATOM     23  H   UNL     1      -7.906  -2.168   1.430  0.00  0.00    +0.000 HD
ENDBRANCH   9  22
TORSDOF 4
