REMARK  Name = 
REMARK  4 active torsions:
REMARK  status: ('A' for Active; 'I' for Inactive)
REMARK    1  A    between atoms: C_1  and  O_2
REMARK    2  A    between atoms: O_2  and  C_3
REMARK    3  A    between atoms: C_4  and  O_24
REMARK    4  A    between atoms: O_24  and  C_25
REMARK                            x       y       z     vdW  Elec       q    Type
REMARK                         _______ _______ _______ _____ _____    ______ ____
ROOT
ATOM      1  C   UNL     1       3.224   0.659  -0.975  0.00  0.00    +0.000 A 
ATOM      2  C   UNL     1       4.373   0.025  -1.513  0.00  0.00    +0.000 A 
ATOM      3  C   UNL     1       5.157   0.705  -2.499  0.00  0.00    +0.000 A 
ATOM      4  C   UNL     1       6.271   0.190  -3.162  0.00  0.00    +0.000 A 
ATOM      5  N   UNL     1       7.013   0.874  -4.055  0.00  0.00    +0.000 N 
ATOM      6  C   UNL     1       6.695   2.146  -4.397  0.00  0.00    +0.000 A 
ATOM      7  C   UNL     1       5.562   2.724  -3.808  0.00  0.00    +0.000 A 
ATOM      8  C   UNL     1       4.792   2.015  -2.875  0.00  0.00    +0.000 A 
ATOM      9  C   UNL     1       3.658   2.617  -2.320  0.00  0.00    +0.000 A 
ATOM     10  C   UNL     1       2.878   1.946  -1.382  0.00  0.00    +0.000 A 
ATOM     11  C   UNL     1       7.588   2.812  -5.363  0.00  0.00    +0.000 A 
ATOM     12  C   UNL     1       7.216   3.995  -6.023  0.00  0.00    +0.000 A 
ATOM     13  C   UNL     1       8.120   4.587  -6.888  0.00  0.00    +0.000 A 
ATOM     14  C   UNL     1       9.352   4.051  -7.131  0.00  0.00    +0.000 A 
ATOM     15  C   UNL     1       9.766   2.892  -6.529  0.00  0.00    +0.000 A 
ATOM     16  C   UNL     1       8.878   2.268  -5.643  0.00  0.00    +0.000 A 
ATOM     17  C   UNL     1       9.320   1.029  -4.923  0.00  0.00    +0.000 C 
ATOM     18  C   UNL     1       8.127   0.133  -4.703  0.00  0.00    +0.000 C 
ATOM     19  O   UNL     1      10.076   4.798  -8.001  0.00  0.00    +0.000 OA
ATOM     20  C   UNL     1       9.185   5.911  -8.216  0.00  0.00    +0.000 C 
ATOM     21  O   UNL     1       7.907   5.745  -7.563  0.00  0.00    +0.000 OA
ENDROOT
BRANCH   1  23
ATOM     22  C   UNL     1       1.146   0.293   0.134  0.00  0.00    +0.000 C 
ATOM     23  O   UNL     1       2.525  -0.033  -0.015  0.00  0.00    +0.000 OA
ENDBRANCH   1  23
BRANCH   2  24
ATOM     24  O   UNL     1       4.578  -1.228  -0.985  0.00  0.00    +0.000 OA
ATOM     25  C   UNL     1       5.691  -2.036  -1.303  0.00  0.00    +0.000 C 
ENDBRANCH   2  24
TORSDOF 2
