REMARK  Name = 
REMARK  2 active torsions:
REMARK  status: ('A' for Active; 'I' for Inactive)
REMARK    1  A    between atoms: C_1  and  O_2
REMARK    2  A    between atoms: O_2  and  C_3
REMARK                            x       y       z     vdW  Elec       q    Type
REMARK                         _______ _______ _______ _____ _____    ______ ____
ROOT
ATOM      1  C   UNL     1       3.260   0.510  -1.191  0.00  0.00    +0.000 A 
ATOM      2  C   UNL     1       2.862   1.618  -1.986  0.00  0.00    +0.000 A 
ATOM      3  C   UNL     1       1.740   2.489  -1.633  0.00  0.00    +0.000 A 
ATOM      4  C   UNL     1       1.404   3.519  -2.418  0.00  0.00    +0.000 A 
ATOM      5  C   UNL     1       2.126   3.831  -3.660  0.00  0.00    +0.000 A 
ATOM      6  O   UNL     1       1.784   4.768  -4.371  0.00  0.00    +0.000 OA
ATOM      7  O   UNL     1       3.208   3.018  -3.968  0.00  0.00    +0.000 OA
ATOM      8  C   UNL     1       3.572   1.923  -3.149  0.00  0.00    +0.000 A 
ATOM      9  C   UNL     1       4.672   1.188  -3.586  0.00  0.00    +0.000 A 
ATOM     10  C   UNL     1       5.011   0.092  -2.802  0.00  0.00    +0.000 A 
ATOM     11  C   UNL     1       4.343  -0.294  -1.640  0.00  0.00    +0.000 A 
ATOM     12  C   UNL     1       5.005  -1.491  -1.230  0.00  0.00    +0.000 A 
ATOM     13  C   UNL     1       6.039  -1.704  -2.109  0.00  0.00    +0.000 A 
ATOM     14  O   UNL     1       6.043  -0.751  -3.070  0.00  0.00    +0.000 OA
ENDROOT
BRANCH   1  16
ATOM     15  C   UNL     1       3.174  -0.396   1.011  0.00  0.00    +0.000 C 
ATOM     16  O   UNL     1       2.506   0.281  -0.047  0.00  0.00    +0.000 OA
ENDBRANCH   1  16
TORSDOF 1
