REMARK  Name = 
REMARK  3 active torsions:
REMARK  status: ('A' for Active; 'I' for Inactive)
REMARK    1  A    between atoms: C_1  and  C_2
REMARK    2  A    between atoms: C_2  and  C_3
REMARK    3  A    between atoms: C_3  and  C_4
REMARK                            x       y       z     vdW  Elec       q    Type
REMARK                         _______ _______ _______ _____ _____    ______ ____
ROOT
ATOM      1  C   UNL     1       4.485   0.559  -1.443  0.00  0.00    +0.000 C 
ATOM      2  C   UNL     1       5.174   1.679  -1.184  0.00  0.00    +0.000 C 
ATOM      3  C   UNL     1       4.735   3.024  -0.882  0.00  0.00    +0.000 A 
ATOM      4  C   UNL     1       3.504   3.638  -0.712  0.00  0.00    +0.000 A 
ATOM      5  C   UNL     1       3.466   5.009  -0.423  0.00  0.00    +0.000 A 
ATOM      6  C   UNL     1       4.649   5.754  -0.315  0.00  0.00    +0.000 A 
ATOM      7  C   UNL     1       5.884   5.134  -0.491  0.00  0.00    +0.000 A 
ATOM      8  C   UNL     1       5.887   3.775  -0.768  0.00  0.00    +0.000 A 
ATOM      9  C   UNL     1       7.044   2.917  -0.987  0.00  0.00    +0.000 C 
ATOM     10  O   UNL     1       8.208   3.273  -0.959  0.00  0.00    +0.000 OA
ATOM     11  O   UNL     1       6.583   1.648  -1.228  0.00  0.00    +0.000 OA
ENDROOT
BRANCH   1  12
ATOM     12  C   UNL     1       3.000   0.356  -1.476  0.00  0.00    +0.000 C 
BRANCH  12  14
ATOM     13  C   UNL     1       0.935   0.427  -2.920  0.00  0.00    +0.000 C 
ATOM     14  C   UNL     1       2.445   0.597  -2.879  0.00  0.00    +0.000 C 
ENDBRANCH  12  14
ENDBRANCH   1  12
TORSDOF 2
