REMARK  Name = 
REMARK  5 active torsions:
REMARK  status: ('A' for Active; 'I' for Inactive)
REMARK    1  A    between atoms: C_3  and  O_13
REMARK    2  A    between atoms: C_4  and  O_12
REMARK    3  A    between atoms: C_6  and  C_7
REMARK    4  A    between atoms: C_8  and  C_9
REMARK    5  A    between atoms: C_9  and  O_11
REMARK                            x       y       z     vdW  Elec       q    Type
REMARK                         _______ _______ _______ _____ _____    ______ ____
ROOT
ATOM      1  C   UNL     1      -1.922   0.642  -0.006  0.00  0.00    +0.000 A 
ATOM      2  C   UNL     1      -0.720   1.364   0.007  0.00  0.00    +0.000 A 
ATOM      3  C   UNL     1       0.484   0.674   0.004  0.00  0.00    +0.000 A 
ATOM      4  C   UNL     1       0.488  -0.717  -0.006  0.00  0.00    +0.000 A 
ATOM      5  C   UNL     1      -0.700  -1.440  -0.020  0.00  0.00    +0.000 A 
ATOM      6  C   UNL     1      -1.928  -0.765  -0.036  0.00  0.00    +0.000 A 
ENDROOT
BRANCH   6   7
ATOM      7  C   UNL     1      -3.221  -1.472  -0.037  0.00  0.00    +0.000 C 
ATOM      8  C   UNL     1      -3.429  -2.673  -0.602  0.00  0.00    +0.000 C 
BRANCH   8   9
ATOM      9  C   UNL     1      -4.777  -3.281  -0.569  0.00  0.00    +0.000 C 
ATOM     10  O   UNL     1      -5.755  -2.770  -0.054  0.00  0.00    +0.000 OA
BRANCH   9  11
ATOM     11  O   UNL     1      -4.806  -4.479  -1.186  0.00  0.00    +0.000 OA
ATOM     12  H   UNL     1      -3.958  -4.782  -1.560  0.00  0.00    +0.000 HD
ENDBRANCH   9  11
ENDBRANCH   8   9
ENDBRANCH   6   7
BRANCH   4  13
ATOM     13  O   UNL     1       1.674  -1.396  -0.004  0.00  0.00    +0.000 OA
ATOM     14  H   UNL     1       2.357  -0.696   0.010  0.00  0.00    +0.000 HD
ENDBRANCH   4  13
BRANCH   3  15
ATOM     15  O   UNL     1       1.691   1.314   0.009  0.00  0.00    +0.000 OA
ATOM     16  H   UNL     1       1.528   2.273  -0.001  0.00  0.00    +0.000 HD
ENDBRANCH   3  15
TORSDOF 5
