REMARK  Name = 
REMARK  11 active torsions:
REMARK  status: ('A' for Active; 'I' for Inactive)
REMARK    1  A    between atoms: C_2  and  O_25
REMARK    2  A    between atoms: C_3  and  O_24
REMARK    3  A    between atoms: C_4  and  O_11
REMARK    4  A    between atoms: C_6  and  C_7
REMARK    5  A    between atoms: C_6  and  O_10
REMARK    6  A    between atoms: C_7  and  O_9
REMARK    7  A    between atoms: O_11  and  C_12
REMARK    8  A    between atoms: C_12  and  C_14
REMARK    9  A    between atoms: C_15  and  C_16
REMARK   10  A    between atoms: C_18  and  O_23
REMARK   11  A    between atoms: C_19  and  O_22
REMARK                            x       y       z     vdW  Elec       q    Type
REMARK                         _______ _______ _______ _____ _____    ______ ____
ROOT
ATOM      1  C   UNL     1       0.706   1.206  -0.256  0.00  0.00    +0.000 C 
ATOM      2  C   UNL     1       1.470  -0.058   0.146  0.00  0.00    +0.000 C 
ATOM      3  C   UNL     1       0.720  -1.349  -0.227  0.00  0.00    +0.000 C 
ATOM      4  C   UNL     1      -0.715  -1.346   0.325  0.00  0.00    +0.000 C 
ATOM      5  C   UNL     1      -1.464  -0.102  -0.157  0.00  0.00    +0.000 C 
ATOM      6  C   UNL     1      -0.746   1.189   0.244  0.00  0.00    +0.000 C 
ENDROOT
BRANCH   6   7
ATOM      7  C   UNL     1      -1.479   2.409  -0.345  0.00  0.00    +0.000 C 
ATOM      8  O   UNL     1      -2.041   2.432  -1.429  0.00  0.00    +0.000 OA
BRANCH   7   9
ATOM      9  O   UNL     1      -1.417   3.485   0.477  0.00  0.00    +0.000 OA
ATOM     10  H   UNL     1      -0.920   3.260   1.295  0.00  0.00    +0.000 HD
ENDBRANCH   7   9
ENDBRANCH   6   7
BRANCH   6  11
ATOM     11  O   UNL     1      -0.707   1.303   1.680  0.00  0.00    +0.000 OA
ATOM     12  H   UNL     1      -1.568   0.992   2.031  0.00  0.00    +0.000 HD
ENDBRANCH   6  11
BRANCH   3  13
ATOM     13  O   UNL     1       1.437  -2.471   0.302  0.00  0.00    +0.000 OA
ATOM     14  H   UNL     1       1.802  -2.175   1.162  0.00  0.00    +0.000 HD
ENDBRANCH   3  13
BRANCH   2  15
ATOM     15  O   UNL     1       1.730  -0.069   1.558  0.00  0.00    +0.000 OA
ATOM     16  H   UNL     1       1.013   0.419   2.012  0.00  0.00    +0.000 HD
ENDBRANCH   2  15
BRANCH   4  17
ATOM     17  O   UNL     1      -1.419  -2.505  -0.177  0.00  0.00    +0.000 OA
BRANCH  17  18
ATOM     18  C   UNL     1      -1.917  -3.358   0.748  0.00  0.00    +0.000 C 
ATOM     19  O   UNL     1      -1.886  -3.211   1.959  0.00  0.00    +0.000 OA
BRANCH  18  20
ATOM     20  C   UNL     1      -2.587  -4.524   0.125  0.00  0.00    +0.000 C 
ATOM     21  C   UNL     1      -2.729  -4.695  -1.199  0.00  0.00    +0.000 C 
BRANCH  21  22
ATOM     22  C   UNL     1      -3.432  -5.850  -1.756  0.00  0.00    +0.000 A 
ATOM     23  C   UNL     1      -4.811  -5.783  -1.996  0.00  0.00    +0.000 A 
ATOM     24  C   UNL     1      -5.462  -6.881  -2.552  0.00  0.00    +0.000 A 
ATOM     25  C   UNL     1      -4.753  -8.038  -2.863  0.00  0.00    +0.000 A 
ATOM     26  C   UNL     1      -3.390  -8.122  -2.621  0.00  0.00    +0.000 A 
ATOM     27  C   UNL     1      -2.726  -7.024  -2.065  0.00  0.00    +0.000 A 
BRANCH  25  28
ATOM     28  O   UNL     1      -5.399  -9.106  -3.417  0.00  0.00    +0.000 OA
ATOM     29  H   UNL     1      -6.329  -8.814  -3.502  0.00  0.00    +0.000 HD
ENDBRANCH  25  28
BRANCH  24  30
ATOM     30  O   UNL     1      -6.804  -6.869  -2.819  0.00  0.00    +0.000 OA
ATOM     31  H   UNL     1      -7.160  -6.005  -2.550  0.00  0.00    +0.000 HD
ENDBRANCH  24  30
ENDBRANCH  21  22
ENDBRANCH  18  20
ENDBRANCH  17  18
ENDBRANCH   4  17
TORSDOF 11
