REMARK  Name = 
REMARK  3 active torsions:
REMARK  status: ('A' for Active; 'I' for Inactive)
REMARK    1  A    between atoms: C_4  and  C_7
REMARK    2  A    between atoms: C_12  and  O_19
REMARK    3  A    between atoms: C_14  and  O_18
REMARK                            x       y       z     vdW  Elec       q    Type
REMARK                         _______ _______ _______ _____ _____    ______ ____
ROOT
ATOM      1  C   UNL     1      -2.845   0.262  -0.920  0.00  0.00    +0.000 A 
ATOM      2  C   UNL     1      -3.195   1.088  -1.918  0.00  0.00    +0.000 A 
ATOM      3  C   UNL     1      -4.617   1.350  -2.168  0.00  0.00    +0.000 A 
ATOM      4  O   UNL     1      -4.985   2.111  -3.056  0.00  0.00    +0.000 OA
ATOM      5  C   UNL     1      -5.580   0.699  -1.278  0.00  0.00    +0.000 A 
ATOM      6  C   UNL     1      -6.949   0.976  -1.354  0.00  0.00    +0.000 A 
ATOM      7  C   UNL     1      -7.842   0.335  -0.500  0.00  0.00    +0.000 A 
ATOM      8  C   UNL     1      -7.354  -0.592   0.418  0.00  0.00    +0.000 A 
ATOM      9  C   UNL     1      -5.992  -0.870   0.507  0.00  0.00    +0.000 A 
ATOM     10  C   UNL     1      -5.099  -0.204  -0.332  0.00  0.00    +0.000 A 
ATOM     11  O   UNL     1      -3.759  -0.458  -0.160  0.00  0.00    +0.000 OA
ENDROOT
BRANCH   1  15
ATOM     12  C   UNL     1       1.236  -0.235   0.351  0.00  0.00    +0.000 A 
ATOM     13  C   UNL     1       0.828   0.961  -0.228  0.00  0.00    +0.000 A 
ATOM     14  C   UNL     1      -0.493   1.115  -0.656  0.00  0.00    +0.000 A 
ATOM     15  C   UNL     1      -1.429   0.073  -0.524  0.00  0.00    +0.000 A 
ATOM     16  C   UNL     1      -0.997  -1.125   0.065  0.00  0.00    +0.000 A 
ATOM     17  C   UNL     1       0.325  -1.280   0.497  0.00  0.00    +0.000 A 
ENDBRANCH   1  15
BRANCH   8  18
ATOM     18  O   UNL     1      -8.193  -1.249   1.269  0.00  0.00    +0.000 OA
ATOM     19  H   UNL     1      -9.099  -0.927   1.127  0.00  0.00    +0.000 HD
ENDBRANCH   8  18
BRANCH   6  20
ATOM     20  O   UNL     1      -7.478   1.881  -2.235  0.00  0.00    +0.000 OA
ATOM     21  H   UNL     1      -6.743   2.241  -2.782  0.00  0.00    +0.000 HD
ENDBRANCH   6  20
TORSDOF 3
