REMARK  Name = 
REMARK  3 active torsions:
REMARK  status: ('A' for Active; 'I' for Inactive)
REMARK    1  A    between atoms: C_1  and  C_2
REMARK    2  A    between atoms: C_20  and  C_21
REMARK    3  A    between atoms: C_20  and  C_22
REMARK                            x       y       z     vdW  Elec       q    Type
REMARK                         _______ _______ _______ _____ _____    ______ ____
ROOT
ATOM      1  C   UNL     1       2.987  -0.372   1.414  0.00  0.00    +0.000 C 
ATOM      2  C   UNL     1       2.521   0.006   0.017  0.00  0.00    +0.000 C 
ATOM      3  C   UNL     1       3.137   1.331  -0.468  0.00  0.00    +0.000 C 
ATOM      4  O   UNL     1       3.482   1.197  -1.872  0.00  0.00    +0.000 OA
ATOM      5  C   UNL     1       3.512  -0.179  -2.053  0.00  0.00    +0.000 C 
ATOM      6  C   UNL     1       3.005  -0.884  -1.053  0.00  0.00    +0.000 C 
ATOM      7  C   UNL     1       2.926  -2.336  -1.119  0.00  0.00    +0.000 C 
ATOM      8  O   UNL     1       2.267  -2.986  -0.325  0.00  0.00    +0.000 OA
ATOM      9  C   UNL     1       3.731  -2.999  -2.228  0.00  0.00    +0.000 C 
ATOM     10  O   UNL     1       4.059  -4.168  -2.082  0.00  0.00    +0.000 OA
ATOM     11  C   UNL     1       4.131  -2.169  -3.413  0.00  0.00    +0.000 A 
ATOM     12  C   UNL     1       4.022  -0.766  -3.287  0.00  0.00    +0.000 A 
ATOM     13  C   UNL     1       4.418   0.043  -4.350  0.00  0.00    +0.000 A 
ATOM     14  C   UNL     1       4.930  -0.525  -5.516  0.00  0.00    +0.000 A 
ATOM     15  C   UNL     1       5.067  -1.919  -5.663  0.00  0.00    +0.000 A 
ATOM     16  C   UNL     1       4.630  -2.758  -4.608  0.00  0.00    +0.000 A 
ATOM     17  C   UNL     1       4.727  -4.267  -4.728  0.00  0.00    +0.000 C 
ATOM     18  C   UNL     1       4.990  -4.797  -6.129  0.00  0.00    +0.000 C 
ATOM     19  C   UNL     1       6.064  -3.968  -6.805  0.00  0.00    +0.000 C 
ATOM     20  C   UNL     1       5.630  -2.493  -6.974  0.00  0.00    +0.000 C 
ATOM     21  C   UNL     1       4.536  -2.383  -8.058  0.00  0.00    +0.000 C 
ATOM     22  C   UNL     1       6.883  -1.726  -7.456  0.00  0.00    +0.000 C 
ENDROOT
TORSDOF 0
