REMARK  Name = 
REMARK  2 active torsions:
REMARK  status: ('A' for Active; 'I' for Inactive)
REMARK    1  A    between atoms: C_1  and  C_2
REMARK    2  A    between atoms: C_16  and  C_21
REMARK                            x       y       z     vdW  Elec       q    Type
REMARK                         _______ _______ _______ _____ _____    ______ ____
ROOT
ATOM      1  C   UNL     1       2.974   0.122   1.466  0.00  0.00    +0.000 C 
ATOM      2  C   UNL     1       2.447   0.046   0.037  0.00  0.00    +0.000 C 
ATOM      3  C   UNL     1       3.113   1.079  -0.890  0.00  0.00    +0.000 C 
ATOM      4  O   UNL     1       3.906   0.389  -1.893  0.00  0.00    +0.000 OA
ATOM      5  C   UNL     1       3.634  -0.952  -1.671  0.00  0.00    +0.000 C 
ATOM      6  C   UNL     1       2.841  -1.199  -0.644  0.00  0.00    +0.000 C 
ATOM      7  C   UNL     1       2.450  -2.553  -0.296  0.00  0.00    +0.000 C 
ATOM      8  O   UNL     1       1.595  -2.773   0.547  0.00  0.00    +0.000 OA
ATOM      9  C   UNL     1       3.178  -3.680  -1.017  0.00  0.00    +0.000 C 
ATOM     10  O   UNL     1       3.077  -4.799  -0.536  0.00  0.00    +0.000 OA
ATOM     11  C   UNL     1       4.004  -3.359  -2.237  0.00  0.00    +0.000 A 
ATOM     12  C   UNL     1       4.208  -1.990  -2.524  0.00  0.00    +0.000 A 
ATOM     13  C   UNL     1       4.984  -1.639  -3.624  0.00  0.00    +0.000 A 
ATOM     14  C   UNL     1       5.557  -2.624  -4.429  0.00  0.00    +0.000 A 
ATOM     15  C   UNL     1       5.385  -4.001  -4.183  0.00  0.00    +0.000 A 
ATOM     16  C   UNL     1       5.979  -5.005  -5.009  0.00  0.00    +0.000 A 
ATOM     17  C   UNL     1       5.779  -6.365  -4.721  0.00  0.00    +0.000 A 
ATOM     18  C   UNL     1       5.002  -6.747  -3.646  0.00  0.00    +0.000 A 
ATOM     19  C   UNL     1       4.417  -5.774  -2.841  0.00  0.00    +0.000 A 
ATOM     20  C   UNL     1       4.586  -4.383  -3.062  0.00  0.00    +0.000 A 
ATOM     21  C   UNL     1       6.841  -4.729  -6.216  0.00  0.00    +0.000 C 
ENDROOT
TORSDOF 0
