REMARK  Name = 
REMARK  6 active torsions:
REMARK  status: ('A' for Active; 'I' for Inactive)
REMARK    1  A    between atoms: C_1  and  O_2
REMARK    2  A    between atoms: O_2  and  C_3
REMARK    3  A    between atoms: C_4  and  O_22
REMARK    4  A    between atoms: C_6  and  C_9
REMARK    5  A    between atoms: C_14  and  O_21
REMARK    6  A    between atoms: C_16  and  O_20
REMARK                            x       y       z     vdW  Elec       q    Type
REMARK                         _______ _______ _______ _____ _____    ______ ____
ROOT
ATOM      1  C   UNL     1       5.237   4.872  -0.683  0.00  0.00    +0.000 A 
ATOM      2  C   UNL     1       6.184   4.910  -1.632  0.00  0.00    +0.000 A 
ATOM      3  C   UNL     1       6.958   6.141  -1.827  0.00  0.00    +0.000 A 
ATOM      4  O   UNL     1       7.839   6.217  -2.676  0.00  0.00    +0.000 OA
ATOM      5  C   UNL     1       6.630   7.284  -0.972  0.00  0.00    +0.000 A 
ATOM      6  C   UNL     1       7.311   8.501  -1.082  0.00  0.00    +0.000 A 
ATOM      7  C   UNL     1       6.971   9.571  -0.260  0.00  0.00    +0.000 A 
ATOM      8  C   UNL     1       5.943   9.411   0.664  0.00  0.00    +0.000 A 
ATOM      9  C   UNL     1       5.257   8.205   0.782  0.00  0.00    +0.000 A 
ATOM     10  C   UNL     1       5.608   7.132  -0.038  0.00  0.00    +0.000 A 
ATOM     11  O   UNL     1       4.915   5.956   0.126  0.00  0.00    +0.000 OA
ENDROOT
BRANCH   1  15
ATOM     12  C   UNL     1       2.850   1.344   0.057  0.00  0.00    +0.000 A 
ATOM     13  C   UNL     1       2.333   2.622   0.277  0.00  0.00    +0.000 A 
ATOM     14  C   UNL     1       3.107   3.761   0.026  0.00  0.00    +0.000 A 
ATOM     15  C   UNL     1       4.426   3.654  -0.441  0.00  0.00    +0.000 A 
ATOM     16  C   UNL     1       4.947   2.365  -0.636  0.00  0.00    +0.000 A 
ATOM     17  C   UNL     1       4.167   1.227  -0.390  0.00  0.00    +0.000 A 
BRANCH  12  19
ATOM     18  C   UNL     1       0.876   0.023  -0.090  0.00  0.00    +0.000 C 
ATOM     19  O   UNL     1       2.230   0.157   0.332  0.00  0.00    +0.000 OA
ENDBRANCH  12  19
BRANCH  13  20
ATOM     20  O   UNL     1       1.088   2.851   0.790  0.00  0.00    +0.000 OA
ATOM     21  H   UNL     1       0.850   2.070   1.315  0.00  0.00    +0.000 HD
ENDBRANCH  13  20
ENDBRANCH   1  15
BRANCH   8  22
ATOM     22  O   UNL     1       5.568  10.435   1.485  0.00  0.00    +0.000 OA
ATOM     23  H   UNL     1       6.121  11.209   1.294  0.00  0.00    +0.000 HD
ENDBRANCH   8  22
BRANCH   6  24
ATOM     24  O   UNL     1       8.328   8.708  -1.976  0.00  0.00    +0.000 OA
ATOM     25  H   UNL     1       8.455   7.880  -2.494  0.00  0.00    +0.000 HD
ENDBRANCH   6  24
TORSDOF 5
