REMARK  Name = 
REMARK  1 active torsions:
REMARK  status: ('A' for Active; 'I' for Inactive)
REMARK    1  A    between atoms: C_1  and  N_2
REMARK                            x       y       z     vdW  Elec       q    Type
REMARK                         _______ _______ _______ _____ _____    ______ ____
ROOT
ATOM      1  C   UNL     1       1.567   0.981  -0.410  0.00  0.00    +0.000 C 
ATOM      2  N   UNL     1       3.009   0.851  -0.300  0.00  0.00    +0.000 N 
ATOM      3  C   UNL     1       3.928   1.488  -1.289  0.00  0.00    +0.000 C 
ATOM      4  C   UNL     1       3.546   2.269  -2.542  0.00  0.00    +0.000 A 
ATOM      5  C   UNL     1       3.313   1.689  -3.788  0.00  0.00    +0.000 A 
ATOM      6  C   UNL     1       3.308   0.206  -3.983  0.00  0.00    +0.000 C 
ATOM      7  C   UNL     1       3.825  -0.498  -2.722  0.00  0.00    +0.000 C 
ATOM      8  N   UNL     1       4.666   0.397  -1.890  0.00  0.00    +0.000 N 
ATOM      9  C   UNL     1       5.543  -0.156  -1.002  0.00  0.00    +0.000 C 
ATOM     10  O   UNL     1       6.751  -0.233  -1.167  0.00  0.00    +0.000 OA
ATOM     11  C   UNL     1       4.864  -0.698   0.185  0.00  0.00    +0.000 A 
ATOM     12  C   UNL     1       5.475  -1.766   0.848  0.00  0.00    +0.000 A 
ATOM     13  C   UNL     1       4.738  -2.492   1.763  0.00  0.00    +0.000 A 
ATOM     14  C   UNL     1       3.416  -2.124   2.010  0.00  0.00    +0.000 A 
ATOM     15  C   UNL     1       2.832  -1.007   1.369  0.00  0.00    +0.000 A 
ATOM     16  C   UNL     1       3.544  -0.247   0.430  0.00  0.00    +0.000 A 
ATOM     17  C   UNL     1       3.568   2.648  -4.807  0.00  0.00    +0.000 A 
ATOM     18  C   UNL     1       3.614   2.566  -6.217  0.00  0.00    +0.000 A 
ATOM     19  C   UNL     1       4.180   3.600  -6.950  0.00  0.00    +0.000 A 
ATOM     20  C   UNL     1       4.727   4.712  -6.302  0.00  0.00    +0.000 A 
ATOM     21  C   UNL     1       4.670   4.826  -4.903  0.00  0.00    +0.000 A 
ATOM     22  C   UNL     1       4.075   3.783  -4.173  0.00  0.00    +0.000 A 
ATOM     23  N   UNL     1       3.952   3.571  -2.800  0.00  0.00    +0.000 N 
ATOM     24  H   UNL     1       4.362   4.190  -2.115  0.00  0.00    +0.000 HD
ENDROOT
TORSDOF 0
