REMARK  Name = 
REMARK  6 active torsions:
REMARK  status: ('A' for Active; 'I' for Inactive)
REMARK    1  A    between atoms: C_1  and  O_2
REMARK    2  A    between atoms: O_2  and  C_3
REMARK    3  A    between atoms: C_4  and  O_14
REMARK    4  A    between atoms: C_7  and  C_9
REMARK    5  A    between atoms: C_10  and  C_11
REMARK    6  A    between atoms: C_11  and  O_13
REMARK                            x       y       z     vdW  Elec       q    Type
REMARK                         _______ _______ _______ _____ _____    ______ ____
ROOT
ATOM      1  C   UNL     1       3.061   1.179  -0.002  0.00  0.00    +0.000 A 
ATOM      2  C   UNL     1       2.442   2.431  -0.020  0.00  0.00    +0.000 A 
ATOM      3  C   UNL     1       3.217   3.595  -0.037  0.00  0.00    +0.000 A 
ATOM      4  C   UNL     1       4.609   3.532  -0.045  0.00  0.00    +0.000 A 
ATOM      5  C   UNL     1       5.259   2.298  -0.060  0.00  0.00    +0.000 A 
ATOM      6  C   UNL     1       4.473   1.136  -0.019  0.00  0.00    +0.000 A 
ENDROOT
BRANCH   1   8
ATOM      7  C   UNL     1       1.124  -0.279   0.016  0.00  0.00    +0.000 C 
ATOM      8  O   UNL     1       2.523  -0.077   0.018  0.00  0.00    +0.000 OA
ENDBRANCH   1   8
BRANCH   5   9
ATOM      9  C   UNL     1       6.728   2.188  -0.069  0.00  0.00    +0.000 C 
ATOM     10  C   UNL     1       7.541   3.090  -0.646  0.00  0.00    +0.000 C 
BRANCH  10  11
ATOM     11  C   UNL     1       9.005   2.904  -0.604  0.00  0.00    +0.000 C 
ATOM     12  O   UNL     1       9.573   1.965  -0.079  0.00  0.00    +0.000 OA
BRANCH  11  13
ATOM     13  O   UNL     1       9.657   3.914  -1.219  0.00  0.00    +0.000 OA
ATOM     14  H   UNL     1       9.094   4.609  -1.606  0.00  0.00    +0.000 HD
ENDBRANCH  11  13
ENDBRANCH  10  11
ENDBRANCH   5   9
BRANCH   2  15
ATOM     15  O   UNL     1       1.103   2.694  -0.028  0.00  0.00    +0.000 OA
ATOM     16  H   UNL     1       0.598   1.910   0.210  0.00  0.00    +0.000 HD
ENDBRANCH   2  15
TORSDOF 5
