REMARK  Name = 
REMARK  5 active torsions:
REMARK  status: ('A' for Active; 'I' for Inactive)
REMARK    1  A    between atoms: C_3  and  O_21
REMARK    2  A    between atoms: C_4  and  O_20
REMARK    3  A    between atoms: C_6  and  C_7
REMARK    4  A    between atoms: C_8  and  O_19
REMARK    5  A    between atoms: C_15  and  O_18
REMARK                            x       y       z     vdW  Elec       q    Type
REMARK                         _______ _______ _______ _____ _____    ______ ____
ROOT
ATOM      1  C   UNL     1      -3.303  -1.358  -0.108  0.00  0.00    +0.000 A 
ATOM      2  C   UNL     1      -4.125  -1.144  -1.154  0.00  0.00    +0.000 A 
ATOM      3  C   UNL     1      -5.442  -1.844  -1.164  0.00  0.00    +0.000 A 
ATOM      4  O   UNL     1      -6.251  -1.714  -2.075  0.00  0.00    +0.000 OA
ATOM      5  C   UNL     1      -5.738  -2.704  -0.009  0.00  0.00    +0.000 A 
ATOM      6  C   UNL     1      -4.786  -2.834   0.999  0.00  0.00    +0.000 A 
ATOM      7  O   UNL     1      -3.575  -2.189   0.965  0.00  0.00    +0.000 OA
ATOM      8  C   UNL     1      -5.050  -3.642   2.107  0.00  0.00    +0.000 A 
ATOM      9  C   UNL     1      -6.273  -4.304   2.193  0.00  0.00    +0.000 A 
ATOM     10  C   UNL     1      -7.229  -4.179   1.189  0.00  0.00    +0.000 A 
ATOM     11  C   UNL     1      -6.962  -3.377   0.080  0.00  0.00    +0.000 A 
ENDROOT
BRANCH   1  17
ATOM     12  C   UNL     1      -1.925   0.586   0.617  0.00  0.00    +0.000 A 
ATOM     13  C   UNL     1      -0.714   1.286   0.659  0.00  0.00    +0.000 A 
ATOM     14  C   UNL     1       0.415   0.717   0.084  0.00  0.00    +0.000 A 
ATOM     15  C   UNL     1       0.343  -0.539  -0.514  0.00  0.00    +0.000 A 
ATOM     16  C   UNL     1      -0.854  -1.243  -0.560  0.00  0.00    +0.000 A 
ATOM     17  C   UNL     1      -2.004  -0.676   0.002  0.00  0.00    +0.000 A 
BRANCH  15  18
ATOM     18  O   UNL     1       1.458  -1.087  -1.079  0.00  0.00    +0.000 OA
ATOM     19  H   UNL     1       2.164  -0.426  -0.928  0.00  0.00    +0.000 HD
ENDBRANCH  15  18
BRANCH  14  20
ATOM     20  O   UNL     1       1.623   1.356   0.073  0.00  0.00    +0.000 OA
ATOM     21  H   UNL     1       1.516   2.225   0.498  0.00  0.00    +0.000 HD
ENDBRANCH  14  20
ENDBRANCH   1  17
BRANCH   9  22
ATOM     22  O   UNL     1      -6.584  -5.093   3.261  0.00  0.00    +0.000 OA
ATOM     23  H   UNL     1      -5.848  -5.077   3.895  0.00  0.00    +0.000 HD
ENDBRANCH   9  22
BRANCH   2  24
ATOM     24  O   UNL     1      -3.839  -0.309  -2.222  0.00  0.00    +0.000 OA
ATOM     25  H   UNL     1      -2.926   0.011  -2.146  0.00  0.00    +0.000 HD
ENDBRANCH   2  24
TORSDOF 5
