REMARK  Name = 
REMARK  4 active torsions:
REMARK  status: ('A' for Active; 'I' for Inactive)
REMARK    1  A    between atoms: C_4  and  C_7
REMARK    2  A    between atoms: C_8  and  O_20
REMARK    3  A    between atoms: C_12  and  O_19
REMARK    4  A    between atoms: C_14  and  O_18
REMARK                            x       y       z     vdW  Elec       q    Type
REMARK                         _______ _______ _______ _____ _____    ______ ____
ROOT
ATOM      1  C   UNL     1      -2.889   0.120  -0.668  0.00  0.00    +0.000 A 
ATOM      2  C   UNL     1      -3.153   0.722  -1.843  0.00  0.00    +0.000 A 
ATOM      3  C   UNL     1      -4.562   1.129  -2.098  0.00  0.00    +0.000 A 
ATOM      4  O   UNL     1      -4.897   1.839  -3.049  0.00  0.00    +0.000 OA
ATOM      5  C   UNL     1      -5.577   0.641  -1.160  0.00  0.00    +0.000 A 
ATOM      6  C   UNL     1      -6.939   0.897  -1.348  0.00  0.00    +0.000 A 
ATOM      7  C   UNL     1      -7.887   0.304  -0.516  0.00  0.00    +0.000 A 
ATOM      8  C   UNL     1      -7.459  -0.538   0.507  0.00  0.00    +0.000 A 
ATOM      9  C   UNL     1      -6.104  -0.748   0.743  0.00  0.00    +0.000 A 
ATOM     10  C   UNL     1      -5.163  -0.137  -0.084  0.00  0.00    +0.000 A 
ATOM     11  O   UNL     1      -3.843  -0.319   0.231  0.00  0.00    +0.000 OA
ENDROOT
BRANCH   1  15
ATOM     12  C   UNL     1       1.033  -0.345   0.944  0.00  0.00    +0.000 A 
ATOM     13  C   UNL     1       0.406   0.898   0.972  0.00  0.00    +0.000 A 
ATOM     14  C   UNL     1      -0.866   1.046   0.420  0.00  0.00    +0.000 A 
ATOM     15  C   UNL     1      -1.520  -0.051  -0.164  0.00  0.00    +0.000 A 
ATOM     16  C   UNL     1      -0.878  -1.293  -0.199  0.00  0.00    +0.000 A 
ATOM     17  C   UNL     1       0.398  -1.438   0.353  0.00  0.00    +0.000 A 
ENDBRANCH   1  15
BRANCH   8  18
ATOM     18  O   UNL     1      -8.347  -1.181   1.316  0.00  0.00    +0.000 OA
ATOM     19  H   UNL     1      -9.249  -0.944   1.041  0.00  0.00    +0.000 HD
ENDBRANCH   8  18
BRANCH   6  20
ATOM     20  O   UNL     1      -7.413   1.725  -2.331  0.00  0.00    +0.000 OA
ATOM     21  H   UNL     1      -6.641   2.068  -2.838  0.00  0.00    +0.000 HD
ENDBRANCH   6  20
BRANCH   2  22
ATOM     22  O   UNL     1      -2.202   1.019  -2.801  0.00  0.00    +0.000 OA
ATOM     23  H   UNL     1      -1.420   0.463  -2.636  0.00  0.00    +0.000 HD
ENDBRANCH   2  22
TORSDOF 4
