REMARK  Name = 
REMARK  5 active torsions:
REMARK  status: ('A' for Active; 'I' for Inactive)
REMARK    1  A    between atoms: C_2  and  C_10
REMARK    2  A    between atoms: C_4  and  O_9
REMARK    3  A    between atoms: C_5  and  O_8
REMARK    4  A    between atoms: C_6  and  O_7
REMARK    5  A    between atoms: C_10  and  O_12
REMARK                            x       y       z     vdW  Elec       q    Type
REMARK                         _______ _______ _______ _____ _____    ______ ____
ROOT
ATOM      1  C   UNL     1       1.259  -1.423   0.011  0.00  0.00    +0.000 A 
ATOM      2  C   UNL     1       0.044  -2.123  -0.007  0.00  0.00    +0.000 A 
ATOM      3  C   UNL     1      -1.179  -1.426  -0.002  0.00  0.00    +0.000 A 
ATOM      4  C   UNL     1      -1.172  -0.035  -0.009  0.00  0.00    +0.000 A 
ATOM      5  C   UNL     1       0.034   0.656  -0.016  0.00  0.00    +0.000 A 
ATOM      6  C   UNL     1       1.238  -0.036  -0.006  0.00  0.00    +0.000 A 
ENDROOT
BRANCH   6   7
ATOM      7  O   UNL     1       2.421   0.644  -0.003  0.00  0.00    +0.000 OA
ATOM      8  H   UNL     1       2.166   1.590  -0.000  0.00  0.00    +0.000 HD
ENDBRANCH   6   7
BRANCH   5   9
ATOM      9  O   UNL     1       0.056   2.024  -0.021  0.00  0.00    +0.000 OA
ATOM     10  H   UNL     1      -0.888   2.283  -0.002  0.00  0.00    +0.000 HD
ENDBRANCH   5   9
BRANCH   4  11
ATOM     11  O   UNL     1      -2.324   0.700  -0.005  0.00  0.00    +0.000 OA
ATOM     12  H   UNL     1      -3.083   0.090   0.023  0.00  0.00    +0.000 HD
ENDBRANCH   4  11
BRANCH   2  13
ATOM     13  C   UNL     1       0.000  -3.605   0.013  0.00  0.00    +0.000 C 
ATOM     14  O   UNL     1      -0.930  -4.223   0.503  0.00  0.00    +0.000 OA
BRANCH  13  15
ATOM     15  O   UNL     1       1.042  -4.203  -0.597  0.00  0.00    +0.000 OA
ATOM     16  H   UNL     1       1.645  -3.614  -1.087  0.00  0.00    +0.000 HD
ENDBRANCH  13  15
ENDBRANCH   2  13
TORSDOF 5
