REMARK  Name = 
REMARK  39 active torsions:
REMARK  status: ('A' for Active; 'I' for Inactive)
REMARK    1  A    between atoms: C_1  and  C_2
REMARK    2  A    between atoms: C_2  and  C_77
REMARK    3  A    between atoms: C_3  and  C_4
REMARK    4  A    between atoms: C_4  and  C_5
REMARK    5  A    between atoms: C_5  and  C_6
REMARK    6  A    between atoms: C_6  and  C_7
REMARK    7  A    between atoms: C_6  and  C_8
REMARK    8  A    between atoms: C_6  and  O_54
REMARK    9  A    between atoms: C_11  and  C_53
REMARK   10  A    between atoms: C_13  and  O_52
REMARK   11  A    between atoms: C_16  and  C_51
REMARK   12  A    between atoms: C_20  and  C_50
REMARK   13  A    between atoms: C_23  and  O_27
REMARK   14  A    between atoms: C_24  and  C_25
REMARK   15  A    between atoms: C_24  and  C_26
REMARK   16  A    between atoms: O_27  and  C_28
REMARK   17  A    between atoms: C_29  and  O_38
REMARK   18  A    between atoms: C_30  and  O_37
REMARK   19  A    between atoms: C_31  and  O_36
REMARK   20  A    between atoms: C_32  and  C_34
REMARK   21  A    between atoms: C_34  and  O_35
REMARK   22  A    between atoms: O_38  and  C_39
REMARK   23  A    between atoms: C_40  and  O_49
REMARK   24  A    between atoms: C_41  and  O_48
REMARK   25  A    between atoms: C_42  and  O_47
REMARK   26  A    between atoms: C_43  and  C_45
REMARK   27  A    between atoms: C_45  and  O_46
REMARK   28  A    between atoms: O_54  and  C_55
REMARK   29  A    between atoms: C_56  and  O_76
REMARK   30  A    between atoms: C_57  and  O_75
REMARK   31  A    between atoms: C_58  and  O_74
REMARK   32  A    between atoms: C_59  and  C_61
REMARK   33  A    between atoms: C_61  and  O_62
REMARK   34  A    between atoms: O_62  and  C_63
REMARK   35  A    between atoms: C_64  and  O_73
REMARK   36  A    between atoms: C_65  and  O_72
REMARK   37  A    between atoms: C_66  and  O_71
REMARK   38  A    between atoms: C_67  and  C_69
REMARK   39  A    between atoms: C_69  and  O_70
REMARK                            x       y       z     vdW  Elec       q    Type
REMARK                         _______ _______ _______ _____ _____    ______ ____
ROOT
ATOM      1  C   UNL     1       1.874  -1.635  -4.841  0.00  0.00    +0.000 C 
ATOM      2  C   UNL     1       0.369  -2.000  -4.629  0.00  0.00    +0.000 C 
ATOM      3  C   UNL     1      -0.239  -0.888  -3.773  0.00  0.00    +0.000 C 
ATOM      4  C   UNL     1       0.512   0.383  -4.201  0.00  0.00    +0.000 C 
ATOM      5  C   UNL     1       1.978  -0.141  -4.354  0.00  0.00    +0.000 C 
ATOM      6  C   UNL     1       2.819   0.934  -5.068  0.00  0.00    +0.000 C 
ATOM      7  C   UNL     1       2.824   2.245  -4.227  0.00  0.00    +0.000 C 
ATOM      8  C   UNL     1       1.422   2.769  -3.788  0.00  0.00    +0.000 C 
ATOM      9  C   UNL     1       0.537   1.607  -3.159  0.00  0.00    +0.000 C 
ATOM     10  C   UNL     1      -0.894   2.138  -2.884  0.00  0.00    +0.000 C 
ATOM     11  C   UNL     1      -0.915   3.455  -2.090  0.00  0.00    +0.000 C 
ATOM     12  C   UNL     1      -0.112   4.565  -2.793  0.00  0.00    +0.000 C 
ATOM     13  C   UNL     1       1.406   4.169  -3.000  0.00  0.00    +0.000 C 
ATOM     14  C   UNL     1       2.064   5.280  -3.886  0.00  0.00    +0.000 C 
ATOM     15  C   UNL     1       1.804   6.737  -3.438  0.00  0.00    +0.000 C 
ATOM     16  C   UNL     1       0.304   7.025  -3.274  0.00  0.00    +0.000 C 
ATOM     17  C   UNL     1      -0.393   6.034  -2.266  0.00  0.00    +0.000 C 
ATOM     18  C   UNL     1      -1.919   6.319  -2.287  0.00  0.00    +0.000 C 
ATOM     19  C   UNL     1       0.035   6.202  -0.798  0.00  0.00    +0.000 C 
ATOM     20  C   UNL     1       2.236   4.092  -1.698  0.00  0.00    +0.000 C 
ATOM     21  C   UNL     1       1.107   1.135  -1.782  0.00  0.00    +0.000 C 
ATOM     22  C   UNL     1      -0.096   0.778  -5.589  0.00  0.00    +0.000 C 
ENDROOT
BRANCH   1  23
ATOM     23  C   UNL     1       2.816  -2.718  -4.098  0.00  0.00    +0.000 C 
ATOM     24  C   UNL     1       2.500  -2.663  -2.589  0.00  0.00    +0.000 C 
BRANCH  23  25
ATOM     25  O   UNL     1       2.392  -4.007  -4.635  0.00  0.00    +0.000 OA
BRANCH  25  26
ATOM     26  C   UNL     1       3.088  -5.230  -4.385  0.00  0.00    +0.000 C 
ATOM     27  C   UNL     1       3.013  -5.863  -2.966  0.00  0.00    +0.000 C 
ATOM     28  C   UNL     1       3.970  -7.060  -2.927  0.00  0.00    +0.000 C 
ATOM     29  C   UNL     1       3.655  -8.072  -4.014  0.00  0.00    +0.000 C 
ATOM     30  C   UNL     1       3.526  -7.368  -5.371  0.00  0.00    +0.000 C 
ATOM     31  O   UNL     1       2.604  -6.254  -5.297  0.00  0.00    +0.000 OA
BRANCH  28  32
ATOM     32  O   UNL     1       3.943  -7.680  -1.634  0.00  0.00    +0.000 OA
ATOM     33  H   UNL     1       3.199  -7.293  -1.133  0.00  0.00    +0.000 HD
ENDBRANCH  28  32
BRANCH  29  34
ATOM     34  O   UNL     1       4.664  -9.086  -4.079  0.00  0.00    +0.000 OA
ATOM     35  H   UNL     1       5.519  -8.705  -3.812  0.00  0.00    +0.000 HD
ENDBRANCH  29  34
BRANCH  27  36
ATOM     36  O   UNL     1       3.362  -5.063  -1.841  0.00  0.00    +0.000 OA
ATOM     37  H   UNL     1       4.317  -5.132  -1.671  0.00  0.00    +0.000 HD
ENDBRANCH  27  36
BRANCH  30  38
ATOM     38  C   UNL     1       3.029  -8.388  -6.391  0.00  0.00    +0.000 C 
BRANCH  38  39
ATOM     39  O   UNL     1       3.150  -7.844  -7.704  0.00  0.00    +0.000 OA
BRANCH  39  40
ATOM     40  C   UNL     1       2.572  -8.725  -8.661  0.00  0.00    +0.000 C 
ATOM     41  C   UNL     1       2.565  -8.039 -10.037  0.00  0.00    +0.000 C 
ATOM     42  C   UNL     1       1.919  -9.002 -11.042  0.00  0.00    +0.000 C 
ATOM     43  C   UNL     1       2.598 -10.381 -11.019  0.00  0.00    +0.000 C 
ATOM     44  C   UNL     1       2.739 -10.909  -9.586  0.00  0.00    +0.000 C 
ATOM     45  O   UNL     1       3.334  -9.929  -8.726  0.00  0.00    +0.000 OA
BRANCH  41  46
ATOM     46  O   UNL     1       1.858  -6.791 -10.041  0.00  0.00    +0.000 OA
ATOM     47  H   UNL     1       1.007  -6.906  -9.585  0.00  0.00    +0.000 HD
ENDBRANCH  41  46
BRANCH  42  48
ATOM     48  O   UNL     1       1.947  -8.471 -12.371  0.00  0.00    +0.000 OA
ATOM     49  H   UNL     1       2.799  -8.014 -12.498  0.00  0.00    +0.000 HD
ENDBRANCH  42  48
BRANCH  43  50
ATOM     50  O   UNL     1       1.866 -11.333 -11.802  0.00  0.00    +0.000 OA
ATOM     51  H   UNL     1       0.927 -11.075 -11.811  0.00  0.00    +0.000 HD
ENDBRANCH  43  50
BRANCH  44  52
ATOM     52  C   UNL     1       3.638 -12.151  -9.543  0.00  0.00    +0.000 C 
BRANCH  52  53
ATOM     53  O   UNL     1       3.715 -12.639  -8.201  0.00  0.00    +0.000 OA
ATOM     54  H   UNL     1       4.002 -11.879  -7.659  0.00  0.00    +0.000 HD
ENDBRANCH  52  53
ENDBRANCH  44  52
ENDBRANCH  39  40
ENDBRANCH  38  39
ENDBRANCH  30  38
ENDBRANCH  25  26
ENDBRANCH  23  25
BRANCH  23  55
ATOM     55  C   UNL     1       4.314  -2.335  -4.383  0.00  0.00    +0.000 C 
BRANCH  55  56
ATOM     56  C   UNL     1       5.441  -3.263  -3.921  0.00  0.00    +0.000 C 
BRANCH  56  59
ATOM     57  C   UNL     1       7.107  -2.044  -1.599  0.00  0.00    +0.000 C 
ATOM     58  C   UNL     1       7.594  -2.279  -2.999  0.00  0.00    +0.000 C 
ATOM     59  C   UNL     1       6.830  -2.712  -4.016  0.00  0.00    +0.000 C 
ATOM     60  C   UNL     1       9.060  -2.053  -3.238  0.00  0.00    +0.000 C 
ENDBRANCH  56  59
ENDBRANCH  55  56
ENDBRANCH  23  55
ENDBRANCH   1  23
BRANCH   6  61
ATOM     61  O   UNL     1       4.163   0.515  -5.265  0.00  0.00    +0.000 OA
ATOM     62  H   UNL     1       4.642   0.608  -4.423  0.00  0.00    +0.000 HD
ENDBRANCH   6  61
BRANCH  16  63
ATOM     63  O   UNL     1      -0.085   8.414  -3.213  0.00  0.00    +0.000 OA
BRANCH  63  64
ATOM     64  C   UNL     1       0.621   9.342  -2.382  0.00  0.00    +0.000 C 
ATOM     65  C   UNL     1       0.180  10.824  -2.657  0.00  0.00    +0.000 C 
ATOM     66  C   UNL     1       0.910  11.747  -1.659  0.00  0.00    +0.000 C 
ATOM     67  C   UNL     1       0.634  11.297  -0.222  0.00  0.00    +0.000 C 
ATOM     68  C   UNL     1       0.868   9.796  -0.038  0.00  0.00    +0.000 C 
ATOM     69  O   UNL     1       0.255   9.028  -1.058  0.00  0.00    +0.000 OA
BRANCH  67  70
ATOM     70  O   UNL     1       1.473  12.021   0.692  0.00  0.00    +0.000 OA
ATOM     71  H   UNL     1       1.609  12.905   0.291  0.00  0.00    +0.000 HD
ENDBRANCH  67  70
BRANCH  66  72
ATOM     72  O   UNL     1       0.479  13.121  -1.752  0.00  0.00    +0.000 OA
ATOM     73  H   UNL     1      -0.253  13.163  -2.396  0.00  0.00    +0.000 HD
ENDBRANCH  66  72
BRANCH  65  74
ATOM     74  O   UNL     1       0.388  11.365  -3.979  0.00  0.00    +0.000 OA
BRANCH  74  75
ATOM     75  C   UNL     1      -0.274  10.660  -5.029  0.00  0.00    +0.000 C 
ATOM     76  C   UNL     1      -1.827  10.714  -5.002  0.00  0.00    +0.000 C 
ATOM     77  C   UNL     1      -2.334   9.761  -6.093  0.00  0.00    +0.000 C 
ATOM     78  C   UNL     1      -1.700  10.054  -7.457  0.00  0.00    +0.000 C 
ATOM     79  C   UNL     1      -0.174  10.193  -7.338  0.00  0.00    +0.000 C 
ATOM     80  O   UNL     1       0.170  11.151  -6.315  0.00  0.00    +0.000 OA
BRANCH  77  81
ATOM     81  O   UNL     1      -3.760   9.831  -6.200  0.00  0.00    +0.000 OA
ATOM     82  H   UNL     1      -4.000   9.315  -6.993  0.00  0.00    +0.000 HD
ENDBRANCH  77  81
BRANCH  78  83
ATOM     83  O   UNL     1      -2.087   9.013  -8.362  0.00  0.00    +0.000 OA
ATOM     84  H   UNL     1      -1.385   8.338  -8.402  0.00  0.00    +0.000 HD
ENDBRANCH  78  83
BRANCH  76  85
ATOM     85  O   UNL     1      -2.411  10.324  -3.752  0.00  0.00    +0.000 OA
ATOM     86  H   UNL     1      -2.231   9.377  -3.613  0.00  0.00    +0.000 HD
ENDBRANCH  76  85
BRANCH  79  87
ATOM     87  C   UNL     1       0.448  10.587  -8.682  0.00  0.00    +0.000 C 
BRANCH  87  88
ATOM     88  O   UNL     1       1.848  10.805  -8.526  0.00  0.00    +0.000 OA
ATOM     89  H   UNL     1       1.931  11.533  -7.881  0.00  0.00    +0.000 HD
ENDBRANCH  87  88
ENDBRANCH  79  87
ENDBRANCH  74  75
ENDBRANCH  65  74
BRANCH  68  90
ATOM     90  C   UNL     1       0.252   9.315   1.286  0.00  0.00    +0.000 C 
BRANCH  90  91
ATOM     91  O   UNL     1       0.858   9.901   2.428  0.00  0.00    +0.000 OA
ATOM     92  H   UNL     1       1.152  10.801   2.177  0.00  0.00    +0.000 HD
ENDBRANCH  90  91
ENDBRANCH  68  90
ENDBRANCH  63  64
ENDBRANCH  16  63
TORSDOF 31
