REMARK  Name = 
REMARK  5 active torsions:
REMARK  status: ('A' for Active; 'I' for Inactive)
REMARK    1  A    between atoms: C_1  and  C_2
REMARK    2  A    between atoms: C_2  and  C_24
REMARK    3  A    between atoms: C_14  and  C_16
REMARK    4  A    between atoms: C_17  and  O_23
REMARK    5  A    between atoms: C_19  and  O_22
REMARK                            x       y       z     vdW  Elec       q    Type
REMARK                         _______ _______ _______ _____ _____    ______ ____
ROOT
ATOM      1  C   UNL     1       0.899  -0.024   0.026  0.00  0.00    +0.000 C 
ATOM      2  C   UNL     1       2.434  -0.088   0.022  0.00  0.00    +0.000 C 
ATOM      3  C   UNL     1       2.952  -0.528   1.373  0.00  0.00    +0.000 C 
ATOM      4  C   UNL     1       3.288  -1.801   1.617  0.00  0.00    +0.000 C 
ATOM      5  C   UNL     1       3.101  -2.773   0.543  0.00  0.00    +0.000 A 
ATOM      6  C   UNL     1       2.883  -2.295  -0.755  0.00  0.00    +0.000 A 
ATOM      7  O   UNL     1       2.842  -0.958  -1.058  0.00  0.00    +0.000 OA
ATOM      8  C   UNL     1       2.712  -3.175  -1.820  0.00  0.00    +0.000 A 
ATOM      9  C   UNL     1       2.692  -4.547  -1.582  0.00  0.00    +0.000 A 
ATOM     10  C   UNL     1       2.881  -5.050  -0.284  0.00  0.00    +0.000 A 
ATOM     11  C   UNL     1       3.108  -4.159   0.773  0.00  0.00    +0.000 A 
ATOM     12  O   UNL     1       3.390  -4.586   2.045  0.00  0.00    +0.000 OA
ATOM     13  C   UNL     1       2.889  -5.878   2.384  0.00  0.00    +0.000 C 
ATOM     14  C   UNL     1       3.223  -6.954   1.345  0.00  0.00    +0.000 C 
ATOM     15  C   UNL     1       2.787  -6.530  -0.062  0.00  0.00    +0.000 C 
ATOM     16  C   UNL     1       2.998   1.298  -0.312  0.00  0.00    +0.000 C 
ENDROOT
BRANCH  14  17
ATOM     17  C   UNL     1       2.617  -8.298   1.724  0.00  0.00    +0.000 A 
ATOM     18  C   UNL     1       3.365  -9.462   1.944  0.00  0.00    +0.000 A 
ATOM     19  C   UNL     1       2.743 -10.664   2.291  0.00  0.00    +0.000 A 
ATOM     20  C   UNL     1       1.360 -10.723   2.409  0.00  0.00    +0.000 A 
ATOM     21  C   UNL     1       0.588  -9.591   2.200  0.00  0.00    +0.000 A 
ATOM     22  C   UNL     1       1.213  -8.393   1.866  0.00  0.00    +0.000 A 
BRANCH  20  23
ATOM     23  O   UNL     1       0.720 -11.881   2.736  0.00  0.00    +0.000 OA
ATOM     24  H   UNL     1       1.390 -12.567   2.892  0.00  0.00    +0.000 HD
ENDBRANCH  20  23
BRANCH  18  25
ATOM     25  O   UNL     1       4.726  -9.532   1.841  0.00  0.00    +0.000 OA
ATOM     26  H   UNL     1       5.094  -8.705   1.502  0.00  0.00    +0.000 HD
ENDBRANCH  18  25
ENDBRANCH  14  17
TORSDOF 3
