REMARK  Name = 
REMARK  15 active torsions:
REMARK  status: ('A' for Active; 'I' for Inactive)
REMARK    1  A    between atoms: C_1  and  C_2
REMARK    2  A    between atoms: C_2  and  C_3
REMARK    3  A    between atoms: C_2  and  C_35
REMARK    4  A    between atoms: C_3  and  C_4
REMARK    5  A    between atoms: C_4  and  C_6
REMARK    6  A    between atoms: C_7  and  C_8
REMARK    7  A    between atoms: C_7  and  C_9
REMARK    8  A    between atoms: C_11  and  O_34
REMARK    9  A    between atoms: C_12  and  C_33
REMARK   10  A    between atoms: C_13  and  C_32
REMARK   11  A    between atoms: C_19  and  O_31
REMARK   12  A    between atoms: C_22  and  C_30
REMARK   13  A    between atoms: C_27  and  C_28
REMARK   14  A    between atoms: C_27  and  C_29
REMARK   15  A    between atoms: C_35  and  O_37
REMARK                            x       y       z     vdW  Elec       q    Type
REMARK                         _______ _______ _______ _____ _____    ______ ____
ROOT
ATOM      1  C   UNL     1       1.627   2.085  -0.973  0.00  0.00    +0.000 C 
ATOM      2  C   UNL     1       0.814   2.923  -1.990  0.00  0.00    +0.000 C 
ATOM      3  C   UNL     1      -0.516   2.182  -2.185  0.00  0.00    +0.000 C 
ATOM      4  C   UNL     1      -0.672   1.387  -0.868  0.00  0.00    +0.000 C 
ATOM      5  C   UNL     1       0.768   0.829  -0.679  0.00  0.00    +0.000 C 
ATOM      6  C   UNL     1       0.909   0.279   0.742  0.00  0.00    +0.000 C 
ATOM      7  C   UNL     1      -0.141  -0.791   0.947  0.00  0.00    +0.000 C 
ATOM      8  O   UNL     1       0.131  -1.810   1.579  0.00  0.00    +0.000 OA
ATOM      9  C   UNL     1      -1.505  -0.605   0.314  0.00  0.00    +0.000 C 
ATOM     10  C   UNL     1      -1.646   0.238  -0.740  0.00  0.00    +0.000 C 
ATOM     11  C   UNL     1      -2.875   0.230  -1.603  0.00  0.00    +0.000 C 
ATOM     12  C   UNL     1      -4.159  -0.149  -0.865  0.00  0.00    +0.000 C 
ATOM     13  C   UNL     1      -3.944  -0.286   0.662  0.00  0.00    +0.000 C 
ATOM     14  C   UNL     1      -2.725  -1.219   0.996  0.00  0.00    +0.000 C 
ATOM     15  C   UNL     1      -2.544  -1.067   2.530  0.00  0.00    +0.000 C 
ATOM     16  C   UNL     1      -3.710  -1.570   3.342  0.00  0.00    +0.000 C 
ATOM     17  C   UNL     1      -5.032  -1.005   2.913  0.00  0.00    +0.000 C 
ATOM     18  O   UNL     1      -5.963  -1.010   3.723  0.00  0.00    +0.000 OA
ATOM     19  C   UNL     1      -5.253  -0.529   1.470  0.00  0.00    +0.000 C 
ATOM     20  C   UNL     1      -6.198  -1.533   0.794  0.00  0.00    +0.000 C 
ATOM     21  C   UNL     1      -5.974   0.837   1.607  0.00  0.00    +0.000 C 
ATOM     22  C   UNL     1      -2.886  -2.677   0.539  0.00  0.00    +0.000 C 
ATOM     23  C   UNL     1       1.108  -0.347  -1.658  0.00  0.00    +0.000 C 
ATOM     24  C   UNL     1      -1.147   2.394   0.245  0.00  0.00    +0.000 C 
ENDROOT
BRANCH   1  26
ATOM     25  C   UNL     1       3.995   1.677  -0.417  0.00  0.00    +0.000 C 
ATOM     26  C   UNL     1       3.059   1.798  -1.374  0.00  0.00    +0.000 C 
ATOM     27  C   UNL     1       3.361   1.650  -2.842  0.00  0.00    +0.000 C 
BRANCH  25  28
ATOM     28  C   UNL     1       5.431   1.457  -0.744  0.00  0.00    +0.000 C 
ATOM     29  O   UNL     1       5.906   1.790  -1.825  0.00  0.00    +0.000 OA
BRANCH  28  30
ATOM     30  C   UNL     1       6.299   0.815   0.305  0.00  0.00    +0.000 C 
BRANCH  30  32
ATOM     31  C   UNL     1       7.039   3.005   1.286  0.00  0.00    +0.000 C 
ATOM     32  C   UNL     1       7.504   1.707   0.613  0.00  0.00    +0.000 C 
BRANCH  32  33
ATOM     33  C   UNL     1       8.366   2.024  -0.610  0.00  0.00    +0.000 C 
ATOM     34  O   UNL     1       8.703   3.152  -0.939  0.00  0.00    +0.000 OA
BRANCH  33  35
ATOM     35  O   UNL     1       8.822   0.930  -1.261  0.00  0.00    +0.000 OA
ATOM     36  H   UNL     1       8.490   0.076  -0.936  0.00  0.00    +0.000 HD
ENDBRANCH  33  35
ENDBRANCH  32  33
ENDBRANCH  30  32
ENDBRANCH  28  30
ENDBRANCH  25  28
ENDBRANCH   1  26
BRANCH  11  37
ATOM     37  O   UNL     1      -2.665  -0.739  -2.635  0.00  0.00    +0.000 OA
ATOM     38  H   UNL     1      -1.748  -0.667  -2.945  0.00  0.00    +0.000 HD
ENDBRANCH  11  37
BRANCH   3  39
ATOM     39  O   UNL     1      -1.562   3.116  -2.402  0.00  0.00    +0.000 OA
ATOM     40  H   UNL     1      -1.254   3.770  -3.055  0.00  0.00    +0.000 HD
ENDBRANCH   3  39
TORSDOF 8
