REMARK  Name = 
REMARK  5 active torsions:
REMARK  status: ('A' for Active; 'I' for Inactive)
REMARK    1  A    between atoms: C_3  and  O_21
REMARK    2  A    between atoms: C_6  and  C_7
REMARK    3  A    between atoms: C_8  and  O_20
REMARK    4  A    between atoms: C_12  and  O_19
REMARK    5  A    between atoms: C_14  and  O_18
REMARK                            x       y       z     vdW  Elec       q    Type
REMARK                         _______ _______ _______ _____ _____    ______ ____
ROOT
ATOM      1  C   UNL     1      -3.390  -0.109  -0.421  0.00  0.00    +0.000 A 
ATOM      2  C   UNL     1      -3.860   0.388  -1.586  0.00  0.00    +0.000 A 
ATOM      3  C   UNL     1      -5.322   0.591  -1.714  0.00  0.00    +0.000 A 
ATOM      4  O   UNL     1      -5.833   1.272  -2.600  0.00  0.00    +0.000 OA
ATOM      5  C   UNL     1      -6.168  -0.112  -0.755  0.00  0.00    +0.000 A 
ATOM      6  C   UNL     1      -7.554  -0.185  -0.932  0.00  0.00    +0.000 A 
ATOM      7  C   UNL     1      -8.318  -1.005  -0.111  0.00  0.00    +0.000 A 
ATOM      8  C   UNL     1      -7.686  -1.733   0.893  0.00  0.00    +0.000 A 
ATOM      9  C   UNL     1      -6.315  -1.607   1.125  0.00  0.00    +0.000 A 
ATOM     10  C   UNL     1      -5.553  -0.780   0.299  0.00  0.00    +0.000 A 
ATOM     11  O   UNL     1      -4.208  -0.656   0.566  0.00  0.00    +0.000 OA
ENDROOT
BRANCH   1  17
ATOM     12  C   UNL     1      -1.372  -1.190   0.634  0.00  0.00    +0.000 A 
ATOM     13  C   UNL     1       0.017  -1.275   0.807  0.00  0.00    +0.000 A 
ATOM     14  C   UNL     1       0.843  -0.310   0.241  0.00  0.00    +0.000 A 
ATOM     15  C   UNL     1       0.305   0.780  -0.421  0.00  0.00    +0.000 A 
ATOM     16  C   UNL     1      -1.079   0.878  -0.564  0.00  0.00    +0.000 A 
ATOM     17  C   UNL     1      -1.936  -0.144  -0.109  0.00  0.00    +0.000 A 
BRANCH  14  18
ATOM     18  O   UNL     1       2.200  -0.398   0.309  0.00  0.00    +0.000 OA
ATOM     19  H   UNL     1       2.439  -1.254   0.702  0.00  0.00    +0.000 HD
ENDBRANCH  14  18
ENDBRANCH   1  17
BRANCH   8  20
ATOM     20  O   UNL     1      -8.389  -2.601   1.676  0.00  0.00    +0.000 OA
ATOM     21  H   UNL     1      -9.310  -2.627   1.362  0.00  0.00    +0.000 HD
ENDBRANCH   8  20
BRANCH   6  22
ATOM     22  O   UNL     1      -8.215   0.507  -1.909  0.00  0.00    +0.000 OA
ATOM     23  H   UNL     1      -7.554   1.043  -2.406  0.00  0.00    +0.000 HD
ENDBRANCH   6  22
BRANCH   2  24
ATOM     24  O   UNL     1      -3.084   0.715  -2.683  0.00  0.00    +0.000 OA
ATOM     25  H   UNL     1      -2.264   0.192  -2.642  0.00  0.00    +0.000 HD
ENDBRANCH   2  24
TORSDOF 5
