REMARK  Name = 
REMARK  3 active torsions:
REMARK  status: ('A' for Active; 'I' for Inactive)
REMARK    1  A    between atoms: C_2  and  C_13
REMARK    2  A    between atoms: C_10  and  O_12
REMARK    3  A    between atoms: C_16  and  O_19
REMARK                            x       y       z     vdW  Elec       q    Type
REMARK                         _______ _______ _______ _____ _____    ______ ____
ROOT
ATOM      1  C   UNL     1      -2.472   0.700  -0.357  0.00  0.00    +0.000 C 
ATOM      2  C   UNL     1      -2.375  -0.654   0.337  0.00  0.00    +0.000 C 
ATOM      3  O   UNL     1      -1.219  -1.384  -0.112  0.00  0.00    +0.000 OA
ATOM      4  C   UNL     1      -0.050  -0.671  -0.028  0.00  0.00    +0.000 A 
ATOM      5  C   UNL     1       0.008   0.720   0.055  0.00  0.00    +0.000 A 
ATOM      6  C   UNL     1      -1.249   1.486   0.001  0.00  0.00    +0.000 C 
ATOM      7  O   UNL     1      -1.264   2.699   0.173  0.00  0.00    +0.000 OA
ATOM      8  C   UNL     1       1.236   1.387   0.127  0.00  0.00    +0.000 A 
ATOM      9  C   UNL     1       2.421   0.654   0.094  0.00  0.00    +0.000 A 
ATOM     10  C   UNL     1       2.362  -0.734  -0.006  0.00  0.00    +0.000 A 
ATOM     11  C   UNL     1       1.138  -1.400  -0.068  0.00  0.00    +0.000 A 
ENDROOT
BRANCH   2  12
ATOM     12  C   UNL     1      -3.647  -1.437   0.042  0.00  0.00    +0.000 A 
ATOM     13  C   UNL     1      -3.754  -2.276  -1.078  0.00  0.00    +0.000 A 
ATOM     14  C   UNL     1      -4.976  -2.866  -1.413  0.00  0.00    +0.000 A 
ATOM     15  C   UNL     1      -6.095  -2.619  -0.626  0.00  0.00    +0.000 A 
ATOM     16  C   UNL     1      -6.005  -1.824   0.508  0.00  0.00    +0.000 A 
ATOM     17  C   UNL     1      -4.785  -1.233   0.842  0.00  0.00    +0.000 A 
BRANCH  15  18
ATOM     18  O   UNL     1      -7.318  -3.129  -0.948  0.00  0.00    +0.000 OA
ATOM     19  H   UNL     1      -7.257  -3.544  -1.824  0.00  0.00    +0.000 HD
ENDBRANCH  15  18
ENDBRANCH   2  12
BRANCH  10  20
ATOM     20  O   UNL     1       3.500  -1.485  -0.054  0.00  0.00    +0.000 OA
ATOM     21  H   UNL     1       4.270  -0.895  -0.018  0.00  0.00    +0.000 HD
ENDBRANCH  10  20
TORSDOF 3
