REMARK  Name = 
REMARK  8 active torsions:
REMARK  status: ('A' for Active; 'I' for Inactive)
REMARK    1  A    between atoms: C_1  and  O_2
REMARK    2  A    between atoms: O_2  and  C_3
REMARK    3  A    between atoms: C_4  and  O_25
REMARK    4  A    between atoms: C_15  and  O_23
REMARK    5  A    between atoms: C_16  and  O_21
REMARK    6  A    between atoms: O_21  and  C_22
REMARK    7  A    between atoms: O_23  and  C_24
REMARK    8  A    between atoms: O_25  and  C_26
REMARK                            x       y       z     vdW  Elec       q    Type
REMARK                         _______ _______ _______ _____ _____    ______ ____
ROOT
ATOM      1  C   UNL     1       2.975   1.279  -0.271  0.00  0.00    +0.000 A 
ATOM      2  C   UNL     1       2.567   2.502   0.311  0.00  0.00    +0.000 A 
ATOM      3  C   UNL     1       3.274   3.703  -0.025  0.00  0.00    +0.000 A 
ATOM      4  C   UNL     1       2.961   4.986   0.426  0.00  0.00    +0.000 A 
ATOM      5  N   UNL     1       3.672   6.092   0.110  0.00  0.00    +0.000 N 
ATOM      6  C   UNL     1       4.753   6.026  -0.709  0.00  0.00    +0.000 A 
ATOM      7  C   UNL     1       5.116   4.778  -1.226  0.00  0.00    +0.000 A 
ATOM      8  C   UNL     1       4.385   3.625  -0.899  0.00  0.00    +0.000 A 
ATOM      9  C   UNL     1       4.772   2.399  -1.445  0.00  0.00    +0.000 A 
ATOM     10  C   UNL     1       4.073   1.241  -1.132  0.00  0.00    +0.000 A 
ATOM     11  C   UNL     1       5.466   7.293  -0.954  0.00  0.00    +0.000 A 
ATOM     12  C   UNL     1       6.346   7.489  -2.027  0.00  0.00    +0.000 A 
ATOM     13  C   UNL     1       7.059   8.698  -2.278  0.00  0.00    +0.000 A 
ATOM     14  C   UNL     1       6.877   9.763  -1.398  0.00  0.00    +0.000 A 
ATOM     15  C   UNL     1       5.986   9.569  -0.316  0.00  0.00    +0.000 A 
ATOM     16  C   UNL     1       5.286   8.379  -0.099  0.00  0.00    +0.000 A 
ATOM     17  C   UNL     1       4.357   8.251   1.069  0.00  0.00    +0.000 C 
ATOM     18  C   UNL     1       3.186   7.395   0.640  0.00  0.00    +0.000 C 
ENDROOT
BRANCH   1  20
ATOM     19  C   UNL     1       1.076  -0.071   0.325  0.00  0.00    +0.000 C 
ATOM     20  O   UNL     1       2.443   0.032  -0.055  0.00  0.00    +0.000 OA
ENDBRANCH   1  20
BRANCH  14  21
ATOM     21  O   UNL     1       7.350  11.027  -1.282  0.00  0.00    +0.000 OA
ATOM     22  C   UNL     1       8.205  11.681  -2.180  0.00  0.00    +0.000 C 
ENDBRANCH  14  21
BRANCH  13  23
ATOM     23  O   UNL     1       7.786   8.482  -3.404  0.00  0.00    +0.000 OA
ATOM     24  C   UNL     1       8.710   9.366  -3.981  0.00  0.00    +0.000 C 
ENDBRANCH  13  23
BRANCH   2  25
ATOM     25  O   UNL     1       1.513   2.370   1.164  0.00  0.00    +0.000 OA
ATOM     26  C   UNL     1       0.975   3.355   2.016  0.00  0.00    +0.000 C 
ENDBRANCH   2  25
TORSDOF 4
