REMARK  Name = 
REMARK  5 active torsions:
REMARK  status: ('A' for Active; 'I' for Inactive)
REMARK    1  A    between atoms: C_1  and  O_2
REMARK    2  A    between atoms: O_2  and  C_3
REMARK    3  A    between atoms: C_4  and  O_21
REMARK    4  A    between atoms: C_6  and  O_20
REMARK    5  A    between atoms: C_10  and  C_14
REMARK                            x       y       z     vdW  Elec       q    Type
REMARK                         _______ _______ _______ _____ _____    ______ ____
ROOT
ATOM      1  C   UNL     1       3.264   1.024   0.542  0.00  0.00    +0.000 A 
ATOM      2  C   UNL     1       2.907   1.668   1.733  0.00  0.00    +0.000 A 
ATOM      3  C   UNL     1       3.510   2.850   2.139  0.00  0.00    +0.000 A 
ATOM      4  C   UNL     1       4.514   3.403   1.348  0.00  0.00    +0.000 A 
ATOM      5  C   UNL     1       4.892   2.786   0.144  0.00  0.00    +0.000 A 
ATOM      6  C   UNL     1       4.250   1.607  -0.269  0.00  0.00    +0.000 A 
ATOM      7  O   UNL     1       4.546   1.004  -1.468  0.00  0.00    +0.000 OA
ATOM      8  C   UNL     1       5.639   1.431  -2.201  0.00  0.00    +0.000 A 
ATOM      9  C   UNL     1       6.364   2.503  -1.875  0.00  0.00    +0.000 A 
ATOM     10  C   UNL     1       5.986   3.316  -0.708  0.00  0.00    +0.000 A 
ATOM     11  O   UNL     1       6.593   4.357  -0.498  0.00  0.00    +0.000 OA
ENDROOT
BRANCH   8  12
ATOM     12  C   UNL     1       5.943   0.595  -3.384  0.00  0.00    +0.000 A 
ATOM     13  C   UNL     1       5.707  -0.789  -3.366  0.00  0.00    +0.000 A 
ATOM     14  C   UNL     1       5.961  -1.583  -4.488  0.00  0.00    +0.000 A 
ATOM     15  C   UNL     1       6.466  -1.004  -5.649  0.00  0.00    +0.000 A 
ATOM     16  C   UNL     1       6.708   0.365  -5.689  0.00  0.00    +0.000 A 
ATOM     17  C   UNL     1       6.441   1.159  -4.569  0.00  0.00    +0.000 A 
ENDBRANCH   8  12
BRANCH   1  19
ATOM     18  C   UNL     1       3.181  -1.105  -0.526  0.00  0.00    +0.000 C 
ATOM     19  O   UNL     1       2.565  -0.137   0.315  0.00  0.00    +0.000 OA
ENDBRANCH   1  19
BRANCH   4  20
ATOM     20  O   UNL     1       5.128   4.544   1.779  0.00  0.00    +0.000 OA
ATOM     21  H   UNL     1       4.769   4.819   2.637  0.00  0.00    +0.000 HD
ENDBRANCH   4  20
BRANCH   2  22
ATOM     22  O   UNL     1       1.960   1.122   2.558  0.00  0.00    +0.000 OA
ATOM     23  H   UNL     1       1.690   0.286   2.129  0.00  0.00    +0.000 HD
ENDBRANCH   2  22
TORSDOF 4
