REMARK  Name = 
REMARK  10 active torsions:
REMARK  status: ('A' for Active; 'I' for Inactive)
REMARK    1  A    between atoms: C_4  and  C_7
REMARK    2  A    between atoms: C_12  and  O_32
REMARK    3  A    between atoms: C_13  and  O_31
REMARK    4  A    between atoms: C_14  and  O_18
REMARK    5  A    between atoms: O_18  and  C_19
REMARK    6  A    between atoms: C_20  and  O_30
REMARK    7  A    between atoms: C_21  and  O_29
REMARK    8  A    between atoms: C_22  and  O_28
REMARK    9  A    between atoms: C_23  and  C_25
REMARK   10  A    between atoms: C_25  and  O_27
REMARK                            x       y       z     vdW  Elec       q    Type
REMARK                         _______ _______ _______ _____ _____    ______ ____
ROOT
ATOM      1  C   UNL     1     -10.414  -6.176   6.138  0.00  0.00    +0.000 A 
ATOM      2  C   UNL     1     -10.168  -7.200   5.315  0.00  0.00    +0.000 A 
ATOM      3  C   UNL     1      -9.958  -6.908   3.894  0.00  0.00    +0.000 A 
ATOM      4  O   UNL     1      -9.764  -7.786   3.066  0.00  0.00    +0.000 OA
ATOM      5  C   UNL     1      -9.923  -5.491   3.510  0.00  0.00    +0.000 A 
ATOM      6  C   UNL     1      -9.436  -5.086   2.269  0.00  0.00    +0.000 A 
ATOM      7  C   UNL     1      -9.439  -3.734   1.919  0.00  0.00    +0.000 A 
ATOM      8  C   UNL     1     -10.059  -2.795   2.740  0.00  0.00    +0.000 A 
ATOM      9  C   UNL     1     -10.475  -3.204   4.021  0.00  0.00    +0.000 A 
ATOM     10  C   UNL     1     -10.355  -4.540   4.423  0.00  0.00    +0.000 A 
ATOM     11  O   UNL     1     -10.638  -4.863   5.731  0.00  0.00    +0.000 OA
ENDROOT
BRANCH   1  15
ATOM     12  C   UNL     1     -10.437  -6.577  10.385  0.00  0.00    +0.000 A 
ATOM     13  C   UNL     1      -9.232  -6.381   9.713  0.00  0.00    +0.000 A 
ATOM     14  C   UNL     1      -9.221  -6.289   8.318  0.00  0.00    +0.000 A 
ATOM     15  C   UNL     1     -10.419  -6.378   7.590  0.00  0.00    +0.000 A 
ATOM     16  C   UNL     1     -11.612  -6.640   8.269  0.00  0.00    +0.000 A 
ATOM     17  C   UNL     1     -11.621  -6.730   9.663  0.00  0.00    +0.000 A 
ENDBRANCH   1  15
BRANCH   7  18
ATOM     18  O   UNL     1      -8.847  -3.395   0.729  0.00  0.00    +0.000 OA
ATOM     19  H   UNL     1      -8.473  -4.247   0.406  0.00  0.00    +0.000 HD
ENDBRANCH   7  18
BRANCH   6  20
ATOM     20  O   UNL     1      -8.929  -5.964   1.340  0.00  0.00    +0.000 OA
ATOM     21  H   UNL     1      -9.127  -6.878   1.659  0.00  0.00    +0.000 HD
ENDBRANCH   6  20
BRANCH   8  22
ATOM     22  O   UNL     1     -10.313  -1.484   2.452  0.00  0.00    +0.000 OA
BRANCH  22  23
ATOM     23  C   UNL     1     -10.562  -1.048   1.099  0.00  0.00    +0.000 C 
ATOM     24  C   UNL     1     -11.779  -1.746   0.426  0.00  0.00    +0.000 C 
ATOM     25  C   UNL     1     -12.036  -1.085  -0.936  0.00  0.00    +0.000 C 
ATOM     26  C   UNL     1     -12.319   0.410  -0.774  0.00  0.00    +0.000 C 
ATOM     27  C   UNL     1     -11.177   1.065   0.006  0.00  0.00    +0.000 C 
ATOM     28  O   UNL     1     -10.871   0.364   1.229  0.00  0.00    +0.000 OA
BRANCH  27  29
ATOM     29  C   UNL     1     -11.590   2.499   0.394  0.00  0.00    +0.000 C 
ATOM     30  O   UNL     1     -11.846   3.400  -0.377  0.00  0.00    +0.000 OA
BRANCH  29  31
ATOM     31  O   UNL     1     -11.626   2.674   1.745  0.00  0.00    +0.000 OA
ATOM     32  H   UNL     1     -11.349   1.838   2.187  0.00  0.00    +0.000 HD
ENDBRANCH  29  31
ENDBRANCH  27  29
BRANCH  26  33
ATOM     33  O   UNL     1     -12.483   1.018  -2.057  0.00  0.00    +0.000 OA
ATOM     34  H   UNL     1     -11.838   0.648  -2.684  0.00  0.00    +0.000 HD
ENDBRANCH  26  33
BRANCH  25  35
ATOM     35  O   UNL     1     -13.111  -1.714  -1.644  0.00  0.00    +0.000 OA
ATOM     36  H   UNL     1     -13.758  -2.045  -0.996  0.00  0.00    +0.000 HD
ENDBRANCH  25  35
BRANCH  24  37
ATOM     37  O   UNL     1     -11.646  -3.153   0.209  0.00  0.00    +0.000 OA
ATOM     38  H   UNL     1     -10.808  -3.310  -0.268  0.00  0.00    +0.000 HD
ENDBRANCH  24  37
ENDBRANCH  22  23
ENDBRANCH   8  22
TORSDOF 10
