MODEL 1
REMARK VINA RESULT:    -1.689      0.000      0.000
REMARK INTER + INTRA:          -3.782
REMARK INTER:                  -2.380
REMARK INTRA:                  -1.402
REMARK UNBOUND:                -1.402
REMARK  Name = 
REMARK  10 active torsions:
REMARK  status: ('A' for Active; 'I' for Inactive)
REMARK    1  A    between atoms: C_4  and  C_7
REMARK    2  A    between atoms: C_12  and  O_32
REMARK    3  A    between atoms: C_13  and  O_31
REMARK    4  A    between atoms: C_14  and  O_18
REMARK    5  A    between atoms: O_18  and  C_19
REMARK    6  A    between atoms: C_20  and  O_30
REMARK    7  A    between atoms: C_21  and  O_29
REMARK    8  A    between atoms: C_22  and  O_28
REMARK    9  A    between atoms: C_23  and  C_25
REMARK   10  A    between atoms: C_25  and  O_27
REMARK                            x       y       z     vdW  Elec       q    Type
REMARK                         _______ _______ _______ _____ _____    ______ ____
ROOT
ATOM      1  C   UNL     1      19.394  27.867  40.576  0.00  0.00    +0.000 A 
ATOM      2  C   UNL     1      19.888  28.948  39.964  0.00  0.00    +0.000 A 
ATOM      3  C   UNL     1      19.240  30.239  40.213  0.00  0.00    +0.000 A 
ATOM      4  O   UNL     1      19.604  31.270  39.667  0.00  0.00    +0.000 OA
ATOM      5  C   UNL     1      18.163  30.254  41.211  0.00  0.00    +0.000 A 
ATOM      6  C   UNL     1      17.687  31.449  41.748  0.00  0.00    +0.000 A 
ATOM      7  C   UNL     1      16.644  31.437  42.676  0.00  0.00    +0.000 A 
ATOM      8  C   UNL     1      15.971  30.251  42.964  0.00  0.00    +0.000 A 
ATOM      9  C   UNL     1      16.511  29.046  42.477  0.00  0.00    +0.000 A 
ATOM     10  C   UNL     1      17.638  29.047  41.647  0.00  0.00    +0.000 A 
ATOM     11  O   UNL     1      18.215  27.841  41.317  0.00  0.00    +0.000 OA
ENDROOT
BRANCH   1  15
ATOM     12  C   UNL     1      21.389  24.104  40.339  0.00  0.00    +0.000 A 
ATOM     13  C   UNL     1      20.333  24.275  41.233  0.00  0.00    +0.000 A 
ATOM     14  C   UNL     1      19.706  25.520  41.338  0.00  0.00    +0.000 A 
ATOM     15  C   UNL     1      20.123  26.596  40.537  0.00  0.00    +0.000 A 
ATOM     16  C   UNL     1      21.224  26.431  39.692  0.00  0.00    +0.000 A 
ATOM     17  C   UNL     1      21.848  25.186  39.588  0.00  0.00    +0.000 A 
ENDBRANCH   1  15
BRANCH   7  18
ATOM     18  O   UNL     1      16.298  32.636  43.244  0.00  0.00    +0.000 OA
ATOM     19  H   UNL     1      16.058  33.197  42.470  0.00  0.00    +0.000 HD
ENDBRANCH   7  18
BRANCH   6  20
ATOM     20  O   UNL     1      18.204  32.679  41.415  0.00  0.00    +0.000 OA
ATOM     21  H   UNL     1      19.048  32.790  41.917  0.00  0.00    +0.000 HD
ENDBRANCH   6  20
BRANCH   8  22
ATOM     22  O   UNL     1      14.824  30.107  43.691  0.00  0.00    +0.000 OA
BRANCH  22  23
ATOM     23  C   UNL     1      13.530  30.377  43.111  0.00  0.00    +0.000 C 
ATOM     24  C   UNL     1      12.335  30.008  44.038  0.00  0.00    +0.000 C 
ATOM     25  C   UNL     1      11.034  30.489  43.379  0.00  0.00    +0.000 C 
ATOM     26  C   UNL     1      11.064  32.001  43.147  0.00  0.00    +0.000 C 
ATOM     27  C   UNL     1      12.314  32.370  42.346  0.00  0.00    +0.000 C 
ATOM     28  O   UNL     1      13.518  31.815  42.915  0.00  0.00    +0.000 OA
BRANCH  27  29
ATOM     29  C   UNL     1      12.477  33.904  42.346  0.00  0.00    +0.000 C 
ATOM     30  O   UNL     1      11.635  34.709  42.008  0.00  0.00    +0.000 OA
BRANCH  29  31
ATOM     31  O   UNL     1      13.716  34.288  42.763  0.00  0.00    +0.000 OA
ATOM     32  H   UNL     1      14.142  33.540  43.242  0.00  0.00    +0.000 HD
ENDBRANCH  29  31
ENDBRANCH  27  29
BRANCH  26  33
ATOM     33  O   UNL     1       9.876  32.415  42.469  0.00  0.00    +0.000 OA
ATOM     34  H   UNL     1       9.119  31.883  42.771  0.00  0.00    +0.000 HD
ENDBRANCH  26  33
BRANCH  25  35
ATOM     35  O   UNL     1       9.879  30.134  44.150  0.00  0.00    +0.000 OA
ATOM     36  H   UNL     1       9.984  29.218  44.463  0.00  0.00    +0.000 HD
ENDBRANCH  25  35
BRANCH  24  37
ATOM     37  O   UNL     1      12.185  28.618  44.335  0.00  0.00    +0.000 OA
ATOM     38  H   UNL     1      13.042  28.282  44.664  0.00  0.00    +0.000 HD
ENDBRANCH  24  37
ENDBRANCH  22  23
ENDBRANCH   8  22
TORSDOF 10
ENDMDL
MODEL 2
REMARK VINA RESULT:    -1.613      6.855      8.806
REMARK INTER + INTRA:          -3.675
REMARK INTER:                  -2.327
REMARK INTRA:                  -1.348
REMARK UNBOUND:                -1.402
REMARK  Name = 
REMARK  10 active torsions:
REMARK  status: ('A' for Active; 'I' for Inactive)
REMARK    1  A    between atoms: C_4  and  C_7
REMARK    2  A    between atoms: C_12  and  O_32
REMARK    3  A    between atoms: C_13  and  O_31
REMARK    4  A    between atoms: C_14  and  O_18
REMARK    5  A    between atoms: O_18  and  C_19
REMARK    6  A    between atoms: C_20  and  O_30
REMARK    7  A    between atoms: C_21  and  O_29
REMARK    8  A    between atoms: C_22  and  O_28
REMARK    9  A    between atoms: C_23  and  C_25
REMARK   10  A    between atoms: C_25  and  O_27
REMARK                            x       y       z     vdW  Elec       q    Type
REMARK                         _______ _______ _______ _____ _____    ______ ____
ROOT
ATOM      1  C   UNL     1      10.250  21.855  40.784  0.00  0.00    +0.000 A 
ATOM      2  C   UNL     1      10.160  21.488  39.502  0.00  0.00    +0.000 A 
ATOM      3  C   UNL     1      10.017  22.541  38.492  0.00  0.00    +0.000 A 
ATOM      4  O   UNL     1       9.891  22.294  37.302  0.00  0.00    +0.000 OA
ATOM      5  C   UNL     1      10.101  23.927  38.968  0.00  0.00    +0.000 A 
ATOM      6  C   UNL     1      10.283  24.989  38.084  0.00  0.00    +0.000 A 
ATOM      7  C   UNL     1      10.332  26.301  38.561  0.00  0.00    +0.000 A 
ATOM      8  C   UNL     1      10.055  26.575  39.899  0.00  0.00    +0.000 A 
ATOM      9  C   UNL     1       9.950  25.492  40.791  0.00  0.00    +0.000 A 
ATOM     10  C   UNL     1      10.029  24.172  40.332  0.00  0.00    +0.000 A 
ATOM     11  O   UNL     1      10.068  23.153  41.256  0.00  0.00    +0.000 OA
ENDROOT
BRANCH   1  15
ATOM     12  C   UNL     1      11.469  19.014  43.724  0.00  0.00    +0.000 A 
ATOM     13  C   UNL     1      11.214  18.597  42.420  0.00  0.00    +0.000 A 
ATOM     14  C   UNL     1      10.776  19.521  41.467  0.00  0.00    +0.000 A 
ATOM     15  C   UNL     1      10.607  20.872  41.812  0.00  0.00    +0.000 A 
ATOM     16  C   UNL     1      10.804  21.267  43.138  0.00  0.00    +0.000 A 
ATOM     17  C   UNL     1      11.242  20.342  44.088  0.00  0.00    +0.000 A 
ENDBRANCH   1  15
BRANCH   7  18
ATOM     18  O   UNL     1      10.622  27.286  37.652  0.00  0.00    +0.000 OA
ATOM     19  H   UNL     1      10.115  27.018  36.851  0.00  0.00    +0.000 HD
ENDBRANCH   7  18
BRANCH   6  20
ATOM     20  O   UNL     1      10.430  24.819  36.728  0.00  0.00    +0.000 OA
ATOM     21  H   UNL     1      10.305  23.858  36.536  0.00  0.00    +0.000 HD
ENDBRANCH   6  20
BRANCH   8  22
ATOM     22  O   UNL     1       9.875  27.803  40.471  0.00  0.00    +0.000 OA
BRANCH  22  23
ATOM     23  C   UNL     1      10.998  28.639  40.820  0.00  0.00    +0.000 C 
ATOM     24  C   UNL     1      10.977  30.038  40.141  0.00  0.00    +0.000 C 
ATOM     25  C   UNL     1      12.125  30.883  40.714  0.00  0.00    +0.000 C 
ATOM     26  C   UNL     1      11.985  31.039  42.230  0.00  0.00    +0.000 C 
ATOM     27  C   UNL     1      11.873  29.657  42.878  0.00  0.00    +0.000 C 
ATOM     28  O   UNL     1      10.868  28.834  42.253  0.00  0.00    +0.000 OA
BRANCH  27  29
ATOM     29  C   UNL     1      11.469  29.826  44.357  0.00  0.00    +0.000 C 
ATOM     30  O   UNL     1      10.367  29.620  44.822  0.00  0.00    +0.000 OA
BRANCH  29  31
ATOM     31  O   UNL     1      12.506  30.264  45.125  0.00  0.00    +0.000 OA
ATOM     32  H   UNL     1      13.025  30.930  44.618  0.00  0.00    +0.000 HD
ENDBRANCH  29  31
ENDBRANCH  27  29
BRANCH  26  33
ATOM     33  O   UNL     1      13.100  31.765  42.751  0.00  0.00    +0.000 OA
ATOM     34  H   UNL     1      13.723  31.976  42.035  0.00  0.00    +0.000 HD
ENDBRANCH  26  33
BRANCH  25  35
ATOM     35  O   UNL     1      12.205  32.171  40.094  0.00  0.00    +0.000 OA
ATOM     36  H   UNL     1      11.679  32.155  39.275  0.00  0.00    +0.000 HD
ENDBRANCH  25  35
BRANCH  24  37
ATOM     37  O   UNL     1      11.105  30.040  38.717  0.00  0.00    +0.000 OA
ATOM     38  H   UNL     1      11.824  29.424  38.475  0.00  0.00    +0.000 HD
ENDBRANCH  24  37
ENDBRANCH  22  23
ENDBRANCH   8  22
TORSDOF 10
ENDMDL
MODEL 3
REMARK VINA RESULT:    -1.549      3.196      4.576
REMARK INTER + INTRA:          -3.585
REMARK INTER:                  -2.249
REMARK INTRA:                  -1.335
REMARK UNBOUND:                -1.402
REMARK  Name = 
REMARK  10 active torsions:
REMARK  status: ('A' for Active; 'I' for Inactive)
REMARK    1  A    between atoms: C_4  and  C_7
REMARK    2  A    between atoms: C_12  and  O_32
REMARK    3  A    between atoms: C_13  and  O_31
REMARK    4  A    between atoms: C_14  and  O_18
REMARK    5  A    between atoms: O_18  and  C_19
REMARK    6  A    between atoms: C_20  and  O_30
REMARK    7  A    between atoms: C_21  and  O_29
REMARK    8  A    between atoms: C_22  and  O_28
REMARK    9  A    between atoms: C_23  and  C_25
REMARK   10  A    between atoms: C_25  and  O_27
REMARK                            x       y       z     vdW  Elec       q    Type
REMARK                         _______ _______ _______ _____ _____    ______ ____
ROOT
ATOM      1  C   UNL     1      19.661  32.762  41.738  0.00  0.00    +0.000 A 
ATOM      2  C   UNL     1      19.775  33.585  42.785  0.00  0.00    +0.000 A 
ATOM      3  C   UNL     1      18.584  34.324  43.214  0.00  0.00    +0.000 A 
ATOM      4  O   UNL     1      18.607  35.125  44.137  0.00  0.00    +0.000 OA
ATOM      5  C   UNL     1      17.328  34.010  42.522  0.00  0.00    +0.000 A 
ATOM      6  C   UNL     1      16.096  34.413  43.033  0.00  0.00    +0.000 A 
ATOM      7  C   UNL     1      14.918  34.123  42.340  0.00  0.00    +0.000 A 
ATOM      8  C   UNL     1      14.969  33.562  41.067  0.00  0.00    +0.000 A 
ATOM      9  C   UNL     1      16.210  33.090  40.598  0.00  0.00    +0.000 A 
ATOM     10  C   UNL     1      17.377  33.266  41.352  0.00  0.00    +0.000 A 
ATOM     11  O   UNL     1      18.537  32.661  40.923  0.00  0.00    +0.000 OA
ENDROOT
BRANCH   1  15
ATOM     12  C   UNL     1      22.893  30.210  40.626  0.00  0.00    +0.000 A 
ATOM     13  C   UNL     1      21.704  30.179  39.900  0.00  0.00    +0.000 A 
ATOM     14  C   UNL     1      20.631  30.987  40.290  0.00  0.00    +0.000 A 
ATOM     15  C   UNL     1      20.750  31.841  41.399  0.00  0.00    +0.000 A 
ATOM     16  C   UNL     1      21.924  31.815  42.157  0.00  0.00    +0.000 A 
ATOM     17  C   UNL     1      22.995  31.008  41.765  0.00  0.00    +0.000 A 
ENDBRANCH   1  15
BRANCH   7  18
ATOM     18  O   UNL     1      13.736  34.453  42.953  0.00  0.00    +0.000 OA
ATOM     19  H   UNL     1      13.330  33.579  43.158  0.00  0.00    +0.000 HD
ENDBRANCH   7  18
BRANCH   6  20
ATOM     20  O   UNL     1      15.963  35.093  44.221  0.00  0.00    +0.000 OA
ATOM     21  H   UNL     1      16.117  34.446  44.951  0.00  0.00    +0.000 HD
ENDBRANCH   6  20
BRANCH   8  22
ATOM     22  O   UNL     1      13.933  33.398  40.193  0.00  0.00    +0.000 OA
BRANCH  22  23
ATOM     23  C   UNL     1      13.003  32.302  40.328  0.00  0.00    +0.000 C 
ATOM     24  C   UNL     1      13.651  30.900  40.144  0.00  0.00    +0.000 C 
ATOM     25  C   UNL     1      12.604  29.825  40.470  0.00  0.00    +0.000 C 
ATOM     26  C   UNL     1      12.094  29.977  41.905  0.00  0.00    +0.000 C 
ATOM     27  C   UNL     1      11.579  31.402  42.117  0.00  0.00    +0.000 C 
ATOM     28  O   UNL     1      12.531  32.401  41.697  0.00  0.00    +0.000 OA
BRANCH  27  29
ATOM     29  C   UNL     1      11.317  31.625  43.620  0.00  0.00    +0.000 C 
ATOM     30  O   UNL     1      11.039  30.765  44.429  0.00  0.00    +0.000 OA
BRANCH  29  31
ATOM     31  O   UNL     1      11.414  32.939  43.967  0.00  0.00    +0.000 OA
ATOM     32  H   UNL     1      10.661  33.435  43.572  0.00  0.00    +0.000 HD
ENDBRANCH  29  31
ENDBRANCH  27  29
BRANCH  26  33
ATOM     33  O   UNL     1      11.070  29.014  42.163  0.00  0.00    +0.000 OA
ATOM     34  H   UNL     1      10.944  28.913  43.122  0.00  0.00    +0.000 HD
ENDBRANCH  26  33
BRANCH  25  35
ATOM     35  O   UNL     1      13.112  28.501  40.268  0.00  0.00    +0.000 OA
ATOM     36  H   UNL     1      13.490  28.447  39.372  0.00  0.00    +0.000 HD
ENDBRANCH  25  35
BRANCH  24  37
ATOM     37  O   UNL     1      14.169  30.622  38.840  0.00  0.00    +0.000 OA
ATOM     38  H   UNL     1      14.090  31.433  38.301  0.00  0.00    +0.000 HD
ENDBRANCH  24  37
ENDBRANCH  22  23
ENDBRANCH   8  22
TORSDOF 10
ENDMDL
MODEL 4
REMARK VINA RESULT:    -1.494      2.605      9.193
REMARK INTER + INTRA:          -3.507
REMARK INTER:                  -2.129
REMARK INTRA:                  -1.379
REMARK UNBOUND:                -1.402
REMARK  Name = 
REMARK  10 active torsions:
REMARK  status: ('A' for Active; 'I' for Inactive)
REMARK    1  A    between atoms: C_4  and  C_7
REMARK    2  A    between atoms: C_12  and  O_32
REMARK    3  A    between atoms: C_13  and  O_31
REMARK    4  A    between atoms: C_14  and  O_18
REMARK    5  A    between atoms: O_18  and  C_19
REMARK    6  A    between atoms: C_20  and  O_30
REMARK    7  A    between atoms: C_21  and  O_29
REMARK    8  A    between atoms: C_22  and  O_28
REMARK    9  A    between atoms: C_23  and  C_25
REMARK   10  A    between atoms: C_25  and  O_27
REMARK                            x       y       z     vdW  Elec       q    Type
REMARK                         _______ _______ _______ _____ _____    ______ ____
ROOT
ATOM      1  C   UNL     1      11.691  30.957  43.392  0.00  0.00    +0.000 A 
ATOM      2  C   UNL     1      10.883  30.087  44.005  0.00  0.00    +0.000 A 
ATOM      3  C   UNL     1      11.377  28.725  44.228  0.00  0.00    +0.000 A 
ATOM      4  O   UNL     1      10.692  27.857  44.748  0.00  0.00    +0.000 OA
ATOM      5  C   UNL     1      12.773  28.461  43.858  0.00  0.00    +0.000 A 
ATOM      6  C   UNL     1      13.437  27.317  44.295  0.00  0.00    +0.000 A 
ATOM      7  C   UNL     1      14.756  27.077  43.905  0.00  0.00    +0.000 A 
ATOM      8  C   UNL     1      15.373  27.897  42.963  0.00  0.00    +0.000 A 
ATOM      9  C   UNL     1      14.722  29.088  42.591  0.00  0.00    +0.000 A 
ATOM     10  C   UNL     1      13.447  29.394  43.083  0.00  0.00    +0.000 A 
ATOM     11  O   UNL     1      12.914  30.633  42.809  0.00  0.00    +0.000 OA
ENDROOT
BRANCH   1  15
ATOM     12  C   UNL     1      10.775  35.123  43.374  0.00  0.00    +0.000 A 
ATOM     13  C   UNL     1      10.003  34.246  44.133  0.00  0.00    +0.000 A 
ATOM     14  C   UNL     1      10.280  32.876  44.108  0.00  0.00    +0.000 A 
ATOM     15  C   UNL     1      11.340  32.379  43.332  0.00  0.00    +0.000 A 
ATOM     16  C   UNL     1      12.065  33.259  42.524  0.00  0.00    +0.000 A 
ATOM     17  C   UNL     1      11.788  34.628  42.553  0.00  0.00    +0.000 A 
ENDBRANCH   1  15
BRANCH   7  18
ATOM     18  O   UNL     1      15.383  25.989  44.458  0.00  0.00    +0.000 OA
ATOM     19  H   UNL     1      16.338  26.232  44.426  0.00  0.00    +0.000 HD
ENDBRANCH   7  18
BRANCH   6  20
ATOM     20  O   UNL     1      12.856  26.382  45.119  0.00  0.00    +0.000 OA
ATOM     21  H   UNL     1      12.335  25.767  44.548  0.00  0.00    +0.000 HD
ENDBRANCH   6  20
BRANCH   8  22
ATOM     22  O   UNL     1      16.572  27.687  42.343  0.00  0.00    +0.000 OA
BRANCH  22  23
ATOM     23  C   UNL     1      17.814  28.097  42.953  0.00  0.00    +0.000 C 
ATOM     24  C   UNL     1      18.767  26.916  43.296  0.00  0.00    +0.000 C 
ATOM     25  C   UNL     1      20.106  27.488  43.784  0.00  0.00    +0.000 C 
ATOM     26  C   UNL     1      20.744  28.377  42.714  0.00  0.00    +0.000 C 
ATOM     27  C   UNL     1      19.748  29.458  42.288  0.00  0.00    +0.000 C 
ATOM     28  O   UNL     1      18.458  28.914  41.942  0.00  0.00    +0.000 OA
BRANCH  27  29
ATOM     29  C   UNL     1      20.291  30.176  41.036  0.00  0.00    +0.000 C 
ATOM     30  O   UNL     1      19.881  31.224  40.582  0.00  0.00    +0.000 OA
BRANCH  29  31
ATOM     31  O   UNL     1      21.308  29.485  40.449  0.00  0.00    +0.000 OA
ATOM     32  H   UNL     1      21.769  30.072  39.805  0.00  0.00    +0.000 HD
ENDBRANCH  29  31
ENDBRANCH  27  29
BRANCH  26  33
ATOM     33  O   UNL     1      21.951  28.956  43.216  0.00  0.00    +0.000 OA
ATOM     34  H   UNL     1      21.923  28.990  44.188  0.00  0.00    +0.000 HD
ENDBRANCH  26  33
BRANCH  25  35
ATOM     35  O   UNL     1      21.021  26.457  44.174  0.00  0.00    +0.000 OA
ATOM     36  H   UNL     1      21.898  26.855  44.311  0.00  0.00    +0.000 HD
ENDBRANCH  25  35
BRANCH  24  37
ATOM     37  O   UNL     1      18.295  26.004  44.290  0.00  0.00    +0.000 OA
ATOM     38  H   UNL     1      18.323  25.103  43.916  0.00  0.00    +0.000 HD
ENDBRANCH  24  37
ENDBRANCH  22  23
ENDBRANCH   8  22
TORSDOF 10
ENDMDL
MODEL 5
REMARK VINA RESULT:    -1.464      2.611      4.288
REMARK INTER + INTRA:          -3.465
REMARK INTER:                  -2.116
REMARK INTRA:                  -1.349
REMARK UNBOUND:                -1.402
REMARK  Name = 
REMARK  10 active torsions:
REMARK  status: ('A' for Active; 'I' for Inactive)
REMARK    1  A    between atoms: C_4  and  C_7
REMARK    2  A    between atoms: C_12  and  O_32
REMARK    3  A    between atoms: C_13  and  O_31
REMARK    4  A    between atoms: C_14  and  O_18
REMARK    5  A    between atoms: O_18  and  C_19
REMARK    6  A    between atoms: C_20  and  O_30
REMARK    7  A    between atoms: C_21  and  O_29
REMARK    8  A    between atoms: C_22  and  O_28
REMARK    9  A    between atoms: C_23  and  C_25
REMARK   10  A    between atoms: C_25  and  O_27
REMARK                            x       y       z     vdW  Elec       q    Type
REMARK                         _______ _______ _______ _____ _____    ______ ____
ROOT
ATOM      1  C   UNL     1      18.320  31.798  40.178  0.00  0.00    +0.000 A 
ATOM      2  C   UNL     1      18.801  32.481  41.221  0.00  0.00    +0.000 A 
ATOM      3  C   UNL     1      17.878  33.340  41.969  0.00  0.00    +0.000 A 
ATOM      4  O   UNL     1      18.240  34.027  42.912  0.00  0.00    +0.000 OA
ATOM      5  C   UNL     1      16.464  33.289  41.574  0.00  0.00    +0.000 A 
ATOM      6  C   UNL     1      15.463  33.815  42.388  0.00  0.00    +0.000 A 
ATOM      7  C   UNL     1      14.129  33.777  41.976  0.00  0.00    +0.000 A 
ATOM      8  C   UNL     1      13.800  33.351  40.692  0.00  0.00    +0.000 A 
ATOM      9  C   UNL     1      14.807  32.752  39.912  0.00  0.00    +0.000 A 
ATOM     10  C   UNL     1      16.125  32.673  40.378  0.00  0.00    +0.000 A 
ATOM     11  O   UNL     1      17.041  31.951  39.647  0.00  0.00    +0.000 OA
ENDROOT
BRANCH   1  15
ATOM     12  C   UNL     1      20.540  28.684  38.288  0.00  0.00    +0.000 A 
ATOM     13  C   UNL     1      20.431  28.714  39.677  0.00  0.00    +0.000 A 
ATOM     14  C   UNL     1      19.737  29.756  40.298  0.00  0.00    +0.000 A 
ATOM     15  C   UNL     1      19.135  30.766  39.529  0.00  0.00    +0.000 A 
ATOM     16  C   UNL     1      19.306  30.761  38.142  0.00  0.00    +0.000 A 
ATOM     17  C   UNL     1      19.999  29.718  37.524  0.00  0.00    +0.000 A 
ENDBRANCH   1  15
BRANCH   7  18
ATOM     18  O   UNL     1      13.186  34.213  42.872  0.00  0.00    +0.000 OA
ATOM     19  H   UNL     1      12.336  34.096  42.388  0.00  0.00    +0.000 HD
ENDBRANCH   7  18
BRANCH   6  20
ATOM     20  O   UNL     1      15.715  34.379  43.616  0.00  0.00    +0.000 OA
ATOM     21  H   UNL     1      16.322  35.145  43.470  0.00  0.00    +0.000 HD
ENDBRANCH   6  20
BRANCH   8  22
ATOM     22  O   UNL     1      12.582  33.435  40.079  0.00  0.00    +0.000 OA
BRANCH  22  23
ATOM     23  C   UNL     1      11.603  32.383  40.208  0.00  0.00    +0.000 C 
ATOM     24  C   UNL     1      12.004  31.058  39.496  0.00  0.00    +0.000 C 
ATOM     25  C   UNL     1      10.968  29.979  39.841  0.00  0.00    +0.000 C 
ATOM     26  C   UNL     1      10.895  29.754  41.353  0.00  0.00    +0.000 C 
ATOM     27  C   UNL     1      10.631  31.088  42.056  0.00  0.00    +0.000 C 
ATOM     28  O   UNL     1      11.542  32.123  41.635  0.00  0.00    +0.000 OA
BRANCH  27  29
ATOM     29  C   UNL     1      10.823  30.903  43.575  0.00  0.00    +0.000 C 
ATOM     30  O   UNL     1      10.229  30.111  44.277  0.00  0.00    +0.000 OA
BRANCH  29  31
ATOM     31  O   UNL     1      11.751  31.762  44.083  0.00  0.00    +0.000 OA
ATOM     32  H   UNL     1      11.918  31.536  45.027  0.00  0.00    +0.000 HD
ENDBRANCH  29  31
ENDBRANCH  27  29
BRANCH  26  33
ATOM     33  O   UNL     1       9.875  28.800  41.657  0.00  0.00    +0.000 OA
ATOM     34  H   UNL     1       9.059  29.023  41.176  0.00  0.00    +0.000 HD
ENDBRANCH  26  33
BRANCH  25  35
ATOM     35  O   UNL     1      11.239  28.741  39.174  0.00  0.00    +0.000 OA
ATOM     36  H   UNL     1      10.929  28.010  39.737  0.00  0.00    +0.000 HD
ENDBRANCH  25  35
BRANCH  24  37
ATOM     37  O   UNL     1      12.105  31.125  38.071  0.00  0.00    +0.000 OA
ATOM     38  H   UNL     1      11.790  32.005  37.784  0.00  0.00    +0.000 HD
ENDBRANCH  24  37
ENDBRANCH  22  23
ENDBRANCH   8  22
TORSDOF 10
ENDMDL
MODEL 6
REMARK VINA RESULT:    -1.461      2.506      3.987
REMARK INTER + INTRA:          -3.460
REMARK INTER:                  -2.099
REMARK INTRA:                  -1.362
REMARK UNBOUND:                -1.402
REMARK  Name = 
REMARK  10 active torsions:
REMARK  status: ('A' for Active; 'I' for Inactive)
REMARK    1  A    between atoms: C_4  and  C_7
REMARK    2  A    between atoms: C_12  and  O_32
REMARK    3  A    between atoms: C_13  and  O_31
REMARK    4  A    between atoms: C_14  and  O_18
REMARK    5  A    between atoms: O_18  and  C_19
REMARK    6  A    between atoms: C_20  and  O_30
REMARK    7  A    between atoms: C_21  and  O_29
REMARK    8  A    between atoms: C_22  and  O_28
REMARK    9  A    between atoms: C_23  and  C_25
REMARK   10  A    between atoms: C_25  and  O_27
REMARK                            x       y       z     vdW  Elec       q    Type
REMARK                         _______ _______ _______ _____ _____    ______ ____
ROOT
ATOM      1  C   UNL     1      17.573  27.578  39.380  0.00  0.00    +0.000 A 
ATOM      2  C   UNL     1      17.755  26.672  40.346  0.00  0.00    +0.000 A 
ATOM      3  C   UNL     1      17.392  27.043  41.717  0.00  0.00    +0.000 A 
ATOM      4  O   UNL     1      17.559  26.291  42.666  0.00  0.00    +0.000 OA
ATOM      5  C   UNL     1      16.747  28.350  41.897  0.00  0.00    +0.000 A 
ATOM      6  C   UNL     1      16.091  28.680  43.082  0.00  0.00    +0.000 A 
ATOM      7  C   UNL     1      15.509  29.940  43.237  0.00  0.00    +0.000 A 
ATOM      8  C   UNL     1      15.702  30.928  42.274  0.00  0.00    +0.000 A 
ATOM      9  C   UNL     1      16.296  30.559  41.053  0.00  0.00    +0.000 A 
ATOM     10  C   UNL     1      16.767  29.257  40.847  0.00  0.00    +0.000 A 
ATOM     11  O   UNL     1      17.206  28.904  39.591  0.00  0.00    +0.000 OA
ENDROOT
BRANCH   1  15
ATOM     12  C   UNL     1      18.169  26.471  35.304  0.00  0.00    +0.000 A 
ATOM     13  C   UNL     1      18.162  27.817  35.663  0.00  0.00    +0.000 A 
ATOM     14  C   UNL     1      17.928  28.180  36.993  0.00  0.00    +0.000 A 
ATOM     15  C   UNL     1      17.713  27.196  37.972  0.00  0.00    +0.000 A 
ATOM     16  C   UNL     1      17.657  25.853  37.588  0.00  0.00    +0.000 A 
ATOM     17  C   UNL     1      17.893  25.492  36.259  0.00  0.00    +0.000 A 
ENDBRANCH   1  15
BRANCH   7  18
ATOM     18  O   UNL     1      14.789  30.159  44.383  0.00  0.00    +0.000 OA
ATOM     19  H   UNL     1      13.979  29.613  44.255  0.00  0.00    +0.000 HD
ENDBRANCH   7  18
BRANCH   6  20
ATOM     20  O   UNL     1      15.971  27.809  44.140  0.00  0.00    +0.000 OA
ATOM     21  H   UNL     1      16.293  26.927  43.833  0.00  0.00    +0.000 HD
ENDBRANCH   6  20
BRANCH   8  22
ATOM     22  O   UNL     1      15.367  32.249  42.367  0.00  0.00    +0.000 OA
BRANCH  22  23
ATOM     23  C   UNL     1      14.037  32.710  42.049  0.00  0.00    +0.000 C 
ATOM     24  C   UNL     1      13.586  32.379  40.597  0.00  0.00    +0.000 C 
ATOM     25  C   UNL     1      12.110  32.772  40.436  0.00  0.00    +0.000 C 
ATOM     26  C   UNL     1      11.232  32.018  41.437  0.00  0.00    +0.000 C 
ATOM     27  C   UNL     1      11.763  32.243  42.854  0.00  0.00    +0.000 C 
ATOM     28  O   UNL     1      13.177  31.979  42.962  0.00  0.00    +0.000 OA
BRANCH  27  29
ATOM     29  C   UNL     1      11.045  31.278  43.820  0.00  0.00    +0.000 C 
ATOM     30  O   UNL     1       9.877  30.954  43.766  0.00  0.00    +0.000 OA
BRANCH  29  31
ATOM     31  O   UNL     1      11.878  30.814  44.793  0.00  0.00    +0.000 OA
ATOM     32  H   UNL     1      12.027  31.526  45.458  0.00  0.00    +0.000 HD
ENDBRANCH  29  31
ENDBRANCH  27  29
BRANCH  26  33
ATOM     33  O   UNL     1       9.875  32.452  41.320  0.00  0.00    +0.000 OA
ATOM     34  H   UNL     1       9.335  32.043  42.018  0.00  0.00    +0.000 HD
ENDBRANCH  26  33
BRANCH  25  35
ATOM     35  O   UNL     1      11.637  32.549  39.103  0.00  0.00    +0.000 OA
ATOM     36  H   UNL     1      12.199  31.874  38.682  0.00  0.00    +0.000 HD
ENDBRANCH  25  35
BRANCH  24  37
ATOM     37  O   UNL     1      14.324  33.024  39.555  0.00  0.00    +0.000 OA
ATOM     38  H   UNL     1      14.606  33.902  39.880  0.00  0.00    +0.000 HD
ENDBRANCH  24  37
ENDBRANCH  22  23
ENDBRANCH   8  22
TORSDOF 10
ENDMDL
MODEL 7
REMARK VINA RESULT:    -1.370      1.567      2.068
REMARK INTER + INTRA:          -3.332
REMARK INTER:                  -2.005
REMARK INTRA:                  -1.327
REMARK UNBOUND:                -1.402
REMARK  Name = 
REMARK  10 active torsions:
REMARK  status: ('A' for Active; 'I' for Inactive)
REMARK    1  A    between atoms: C_4  and  C_7
REMARK    2  A    between atoms: C_12  and  O_32
REMARK    3  A    between atoms: C_13  and  O_31
REMARK    4  A    between atoms: C_14  and  O_18
REMARK    5  A    between atoms: O_18  and  C_19
REMARK    6  A    between atoms: C_20  and  O_30
REMARK    7  A    between atoms: C_21  and  O_29
REMARK    8  A    between atoms: C_22  and  O_28
REMARK    9  A    between atoms: C_23  and  C_25
REMARK   10  A    between atoms: C_25  and  O_27
REMARK                            x       y       z     vdW  Elec       q    Type
REMARK                         _______ _______ _______ _____ _____    ______ ____
ROOT
ATOM      1  C   UNL     1      19.489  28.684  39.018  0.00  0.00    +0.000 A 
ATOM      2  C   UNL     1      19.306  29.555  38.021  0.00  0.00    +0.000 A 
ATOM      3  C   UNL     1      18.270  30.580  38.180  0.00  0.00    +0.000 A 
ATOM      4  O   UNL     1      18.011  31.392  37.304  0.00  0.00    +0.000 OA
ATOM      5  C   UNL     1      17.591  30.634  39.481  0.00  0.00    +0.000 A 
ATOM      6  C   UNL     1      16.821  31.734  39.853  0.00  0.00    +0.000 A 
ATOM      7  C   UNL     1      16.163  31.747  41.086  0.00  0.00    +0.000 A 
ATOM      8  C   UNL     1      16.149  30.610  41.889  0.00  0.00    +0.000 A 
ATOM      9  C   UNL     1      16.993  29.538  41.540  0.00  0.00    +0.000 A 
ATOM     10  C   UNL     1      17.753  29.577  40.364  0.00  0.00    +0.000 A 
ATOM     11  O   UNL     1      18.670  28.575  40.139  0.00  0.00    +0.000 OA
ENDROOT
BRANCH   1  15
ATOM     12  C   UNL     1      22.942  26.180  39.094  0.00  0.00    +0.000 A 
ATOM     13  C   UNL     1      22.812  27.154  38.106  0.00  0.00    +0.000 A 
ATOM     14  C   UNL     1      21.662  27.948  38.058  0.00  0.00    +0.000 A 
ATOM     15  C   UNL     1      20.643  27.780  39.009  0.00  0.00    +0.000 A 
ATOM     16  C   UNL     1      20.754  26.758  39.955  0.00  0.00    +0.000 A 
ATOM     17  C   UNL     1      21.904  25.967  40.002  0.00  0.00    +0.000 A 
ENDBRANCH   1  15
BRANCH   7  18
ATOM     18  O   UNL     1      15.513  32.903  41.434  0.00  0.00    +0.000 OA
ATOM     19  H   UNL     1      16.219  33.450  41.849  0.00  0.00    +0.000 HD
ENDBRANCH   7  18
BRANCH   6  20
ATOM     20  O   UNL     1      16.669  32.846  39.059  0.00  0.00    +0.000 OA
ATOM     21  H   UNL     1      17.527  32.994  38.593  0.00  0.00    +0.000 HD
ENDBRANCH   6  20
BRANCH   8  22
ATOM     22  O   UNL     1      15.404  30.402  43.015  0.00  0.00    +0.000 OA
BRANCH  22  23
ATOM     23  C   UNL     1      13.981  30.173  42.940  0.00  0.00    +0.000 C 
ATOM     24  C   UNL     1      13.399  29.413  44.167  0.00  0.00    +0.000 C 
ATOM     25  C   UNL     1      11.869  29.377  44.046  0.00  0.00    +0.000 C 
ATOM     26  C   UNL     1      11.291  30.792  43.990  0.00  0.00    +0.000 C 
ATOM     27  C   UNL     1      11.965  31.576  42.861  0.00  0.00    +0.000 C 
ATOM     28  O   UNL     1      13.404  31.505  42.924  0.00  0.00    +0.000 OA
BRANCH  27  29
ATOM     29  C   UNL     1      11.577  33.063  42.980  0.00  0.00    +0.000 C 
ATOM     30  O   UNL     1      10.453  33.497  43.121  0.00  0.00    +0.000 OA
BRANCH  29  31
ATOM     31  O   UNL     1      12.661  33.884  42.889  0.00  0.00    +0.000 OA
ATOM     32  H   UNL     1      12.960  33.924  41.951  0.00  0.00    +0.000 HD
ENDBRANCH  29  31
ENDBRANCH  27  29
BRANCH  26  33
ATOM     33  O   UNL     1       9.875  30.735  43.803  0.00  0.00    +0.000 OA
ATOM     34  H   UNL     1       9.443  31.433  44.326  0.00  0.00    +0.000 HD
ENDBRANCH  26  33
BRANCH  25  35
ATOM     35  O   UNL     1      11.263  28.641  45.115  0.00  0.00    +0.000 OA
ATOM     36  H   UNL     1      11.194  27.707  44.849  0.00  0.00    +0.000 HD
ENDBRANCH  25  35
BRANCH  24  37
ATOM     37  O   UNL     1      13.855  28.068  44.338  0.00  0.00    +0.000 OA
ATOM     38  H   UNL     1      14.786  28.097  44.631  0.00  0.00    +0.000 HD
ENDBRANCH  24  37
ENDBRANCH  22  23
ENDBRANCH   8  22
TORSDOF 10
ENDMDL
MODEL 8
REMARK VINA RESULT:    -1.356      2.609      4.224
REMARK INTER + INTRA:          -3.313
REMARK INTER:                  -1.926
REMARK INTRA:                  -1.387
REMARK UNBOUND:                -1.402
REMARK  Name = 
REMARK  10 active torsions:
REMARK  status: ('A' for Active; 'I' for Inactive)
REMARK    1  A    between atoms: C_4  and  C_7
REMARK    2  A    between atoms: C_12  and  O_32
REMARK    3  A    between atoms: C_13  and  O_31
REMARK    4  A    between atoms: C_14  and  O_18
REMARK    5  A    between atoms: O_18  and  C_19
REMARK    6  A    between atoms: C_20  and  O_30
REMARK    7  A    between atoms: C_21  and  O_29
REMARK    8  A    between atoms: C_22  and  O_28
REMARK    9  A    between atoms: C_23  and  C_25
REMARK   10  A    between atoms: C_25  and  O_27
REMARK                            x       y       z     vdW  Elec       q    Type
REMARK                         _______ _______ _______ _____ _____    ______ ____
ROOT
ATOM      1  C   UNL     1      17.401  25.079  41.141  0.00  0.00    +0.000 A 
ATOM      2  C   UNL     1      17.100  23.967  41.819  0.00  0.00    +0.000 A 
ATOM      3  C   UNL     1      16.172  24.077  42.948  0.00  0.00    +0.000 A 
ATOM      4  O   UNL     1      15.871  23.118  43.645  0.00  0.00    +0.000 OA
ATOM      5  C   UNL     1      15.557  25.391  43.171  0.00  0.00    +0.000 A 
ATOM      6  C   UNL     1      14.451  25.545  44.003  0.00  0.00    +0.000 A 
ATOM      7  C   UNL     1      13.902  26.811  44.219  0.00  0.00    +0.000 A 
ATOM      8  C   UNL     1      14.538  27.947  43.725  0.00  0.00    +0.000 A 
ATOM      9  C   UNL     1      15.605  27.773  42.824  0.00  0.00    +0.000 A 
ATOM     10  C   UNL     1      16.076  26.493  42.507  0.00  0.00    +0.000 A 
ATOM     11  O   UNL     1      17.021  26.366  41.514  0.00  0.00    +0.000 OA
ENDROOT
BRANCH   1  15
ATOM     12  C   UNL     1      19.413  24.790  37.391  0.00  0.00    +0.000 A 
ATOM     13  C   UNL     1      19.307  23.667  38.210  0.00  0.00    +0.000 A 
ATOM     14  C   UNL     1      18.682  23.772  39.456  0.00  0.00    +0.000 A 
ATOM     15  C   UNL     1      18.147  24.999  39.881  0.00  0.00    +0.000 A 
ATOM     16  C   UNL     1      18.317  26.132  39.081  0.00  0.00    +0.000 A 
ATOM     17  C   UNL     1      18.941  26.025  37.836  0.00  0.00    +0.000 A 
ENDBRANCH   1  15
BRANCH   7  18
ATOM     18  O   UNL     1      12.750  26.875  44.961  0.00  0.00    +0.000 OA
ATOM     19  H   UNL     1      12.203  26.138  44.603  0.00  0.00    +0.000 HD
ENDBRANCH   7  18
BRANCH   6  20
ATOM     20  O   UNL     1      13.841  24.490  44.641  0.00  0.00    +0.000 OA
ATOM     21  H   UNL     1      12.957  24.804  44.953  0.00  0.00    +0.000 HD
ENDBRANCH   6  20
BRANCH   8  22
ATOM     22  O   UNL     1      14.240  29.250  44.008  0.00  0.00    +0.000 OA
BRANCH  22  23
ATOM     23  C   UNL     1      13.272  29.984  43.228  0.00  0.00    +0.000 C 
ATOM     24  C   UNL     1      11.982  30.357  44.015  0.00  0.00    +0.000 C 
ATOM     25  C   UNL     1      11.112  31.266  43.134  0.00  0.00    +0.000 C 
ATOM     26  C   UNL     1      11.870  32.538  42.745  0.00  0.00    +0.000 C 
ATOM     27  C   UNL     1      13.200  32.160  42.090  0.00  0.00    +0.000 C 
ATOM     28  O   UNL     1      13.954  31.216  42.877  0.00  0.00    +0.000 OA
BRANCH  27  29
ATOM     29  C   UNL     1      14.067  33.427  41.945  0.00  0.00    +0.000 C 
ATOM     30  O   UNL     1      15.002  33.568  41.184  0.00  0.00    +0.000 OA
BRANCH  29  31
ATOM     31  O   UNL     1      13.679  34.414  42.801  0.00  0.00    +0.000 OA
ATOM     32  H   UNL     1      12.747  34.665  42.605  0.00  0.00    +0.000 HD
ENDBRANCH  29  31
ENDBRANCH  27  29
BRANCH  26  33
ATOM     33  O   UNL     1      11.070  33.334  41.868  0.00  0.00    +0.000 OA
ATOM     34  H   UNL     1      10.173  33.430  42.233  0.00  0.00    +0.000 HD
ENDBRANCH  26  33
BRANCH  25  35
ATOM     35  O   UNL     1       9.875  31.607  43.771  0.00  0.00    +0.000 OA
ATOM     36  H   UNL     1       9.569  30.840  44.286  0.00  0.00    +0.000 HD
ENDBRANCH  25  35
BRANCH  24  37
ATOM     37  O   UNL     1      11.172  29.257  44.438  0.00  0.00    +0.000 OA
ATOM     38  H   UNL     1      10.237  29.484  44.270  0.00  0.00    +0.000 HD
ENDBRANCH  24  37
ENDBRANCH  22  23
ENDBRANCH   8  22
TORSDOF 10
ENDMDL
MODEL 9
REMARK VINA RESULT:    -1.347      2.737      9.627
REMARK INTER + INTRA:          -3.300
REMARK INTER:                  -1.999
REMARK INTRA:                  -1.301
REMARK UNBOUND:                -1.402
REMARK  Name = 
REMARK  10 active torsions:
REMARK  status: ('A' for Active; 'I' for Inactive)
REMARK    1  A    between atoms: C_4  and  C_7
REMARK    2  A    between atoms: C_12  and  O_32
REMARK    3  A    between atoms: C_13  and  O_31
REMARK    4  A    between atoms: C_14  and  O_18
REMARK    5  A    between atoms: O_18  and  C_19
REMARK    6  A    between atoms: C_20  and  O_30
REMARK    7  A    between atoms: C_21  and  O_29
REMARK    8  A    between atoms: C_22  and  O_28
REMARK    9  A    between atoms: C_23  and  C_25
REMARK   10  A    between atoms: C_25  and  O_27
REMARK                            x       y       z     vdW  Elec       q    Type
REMARK                         _______ _______ _______ _____ _____    ______ ____
ROOT
ATOM      1  C   UNL     1      11.834  31.023  43.345  0.00  0.00    +0.000 A 
ATOM      2  C   UNL     1      11.165  30.152  44.106  0.00  0.00    +0.000 A 
ATOM      3  C   UNL     1      11.760  28.831  44.328  0.00  0.00    +0.000 A 
ATOM      4  O   UNL     1      11.200  27.961  44.979  0.00  0.00    +0.000 OA
ATOM      5  C   UNL     1      13.106  28.614  43.784  0.00  0.00    +0.000 A 
ATOM      6  C   UNL     1      13.886  27.530  44.183  0.00  0.00    +0.000 A 
ATOM      7  C   UNL     1      15.153  27.332  43.629  0.00  0.00    +0.000 A 
ATOM      8  C   UNL     1      15.591  28.126  42.572  0.00  0.00    +0.000 A 
ATOM      9  C   UNL     1      14.831  29.261  42.234  0.00  0.00    +0.000 A 
ATOM     10  C   UNL     1      13.618  29.532  42.879  0.00  0.00    +0.000 A 
ATOM     11  O   UNL     1      12.985  30.727  42.618  0.00  0.00    +0.000 OA
ENDROOT
BRANCH   1  15
ATOM     12  C   UNL     1      10.665  35.125  43.266  0.00  0.00    +0.000 A 
ATOM     13  C   UNL     1       9.912  34.203  43.991  0.00  0.00    +0.000 A 
ATOM     14  C   UNL     1      10.274  32.852  43.984  0.00  0.00    +0.000 A 
ATOM     15  C   UNL     1      11.400  32.421  43.264  0.00  0.00    +0.000 A 
ATOM     16  C   UNL     1      12.108  33.343  42.488  0.00  0.00    +0.000 A 
ATOM     17  C   UNL     1      11.746  34.693  42.498  0.00  0.00    +0.000 A 
ENDBRANCH   1  15
BRANCH   7  18
ATOM     18  O   UNL     1      15.908  26.310  44.145  0.00  0.00    +0.000 OA
ATOM     19  H   UNL     1      15.942  26.511  45.109  0.00  0.00    +0.000 HD
ENDBRANCH   7  18
BRANCH   6  20
ATOM     20  O   UNL     1      13.474  26.617  45.125  0.00  0.00    +0.000 OA
ATOM     21  H   UNL     1      13.974  26.804  45.956  0.00  0.00    +0.000 HD
ENDBRANCH   6  20
BRANCH   8  22
ATOM     22  O   UNL     1      16.706  27.940  41.805  0.00  0.00    +0.000 OA
BRANCH  22  23
ATOM     23  C   UNL     1      16.781  26.874  40.836  0.00  0.00    +0.000 C 
ATOM     24  C   UNL     1      17.719  27.180  39.633  0.00  0.00    +0.000 C 
ATOM     25  C   UNL     1      17.838  25.918  38.766  0.00  0.00    +0.000 C 
ATOM     26  C   UNL     1      18.399  24.748  39.578  0.00  0.00    +0.000 C 
ATOM     27  C   UNL     1      17.546  24.539  40.830  0.00  0.00    +0.000 C 
ATOM     28  O   UNL     1      17.347  25.759  41.573  0.00  0.00    +0.000 OA
BRANCH  27  29
ATOM     29  C   UNL     1      18.262  23.546  41.768  0.00  0.00    +0.000 C 
ATOM     30  O   UNL     1      19.222  22.862  41.481  0.00  0.00    +0.000 OA
BRANCH  29  31
ATOM     31  O   UNL     1      17.681  23.493  42.999  0.00  0.00    +0.000 OA
ATOM     32  H   UNL     1      18.141  22.814  43.545  0.00  0.00    +0.000 HD
ENDBRANCH  29  31
ENDBRANCH  27  29
BRANCH  26  33
ATOM     33  O   UNL     1      18.434  23.568  38.773  0.00  0.00    +0.000 OA
ATOM     34  H   UNL     1      18.196  22.793  39.311  0.00  0.00    +0.000 HD
ENDBRANCH  26  33
BRANCH  25  35
ATOM     35  O   UNL     1      18.645  26.140  37.603  0.00  0.00    +0.000 OA
ATOM     36  H   UNL     1      18.385  26.988  37.202  0.00  0.00    +0.000 HD
ENDBRANCH  25  35
BRANCH  24  37
ATOM     37  O   UNL     1      17.309  28.254  38.783  0.00  0.00    +0.000 OA
ATOM     38  H   UNL     1      18.046  28.892  38.720  0.00  0.00    +0.000 HD
ENDBRANCH  24  37
ENDBRANCH  22  23
ENDBRANCH   8  22
TORSDOF 10
ENDMDL
